Program Version,EnergyPlus, Version 9.1.0-fafb9d5652, YMD=2020.03.24 18:14
1,5,Environment Title[],Latitude[deg],Longitude[deg],Time Zone[],Elevation[m]
2,8,Day of Simulation[],Month[],Day of Month[],DST Indicator[1=yes 0=no],Hour[],StartMinute[],EndMinute[],DayType
3,5,Cumulative Day of Simulation[],Month[],Day of Month[],DST Indicator[1=yes 0=no],DayType  ! When Daily Report Variables Requested
4,2,Cumulative Days of Simulation[],Month[]  ! When Monthly Report Variables Requested
5,1,Cumulative Days of Simulation[] ! When Run Period Report Variables Requested
6,1,Calendar Year of Simulation[] ! When Annual Report Variables Requested
7,9,Environment,Site Outdoor Air Drybulb Temperature [C] !Monthly [Value,Min,Day,Hour,Minute,Max,Day,Hour,Minute]
8,1,Environment,Site Outdoor Air Wetbulb Temperature [C] !TimeStep
692,1,BUILDING STORY 1 THERMALZONE,Zone Air Temperature [C] !Hourly
693,7,BUILDING STORY 1 THERMALZONE,Zone Air Relative Humidity [%] !Daily [Value,Min,Hour,Minute,Max,Hour,Minute]
732,1,BUILDING STORY 2 THERMALZONE,Zone Air Temperature [C] !Hourly
733,7,BUILDING STORY 2 THERMALZONE,Zone Air Relative Humidity [%] !Daily [Value,Min,Hour,Minute,Max,Hour,Minute]
772,1,BUILDING STORY 3 THERMALZONE,Zone Air Temperature [C] !Hourly
773,7,BUILDING STORY 3 THERMALZONE,Zone Air Relative Humidity [%] !Daily [Value,Min,Hour,Minute,Max,Hour,Minute]
812,1,BUILDING STORY 4 THERMALZONE,Zone Air Temperature [C] !Hourly
813,7,BUILDING STORY 4 THERMALZONE,Zone Air Relative Humidity [%] !Daily [Value,Min,Hour,Minute,Max,Hour,Minute]
11,1,Electricity:Facility [J] !TimeStep
252,1,Gas:Facility [J] !TimeStep
End of Data Dictionary
1,BUFFALO NIAGARA INTL AP ANN CLG .4% CONDNS DB=>MWB 1,  42.93, -78.73,  -5.00, 215.00
2,1, 7,21, 0, 1, 0.00,15.00,SummerDesignDay
8,19.498447168617639
11,3934922523.0566685
252,2870910092.764448
2,1, 7,21, 0, 1,15.00,30.00,SummerDesignDay
8,19.455172187031058
11,3929497501.210965
252,2870774738.029045
2,1, 7,21, 0, 1,30.00,45.00,SummerDesignDay
8,19.4118249624254
11,3928252708.125558
252,2870636386.0803844
2,1, 7,21, 0, 1,45.00,60.00,SummerDesignDay
8,19.36840579326866
11,3926305433.800896
252,2870494961.507827
2,1, 7,21, 0, 1, 0.00,60.00,SummerDesignDay
692,24.407598271489169
732,25.985097780394779
772,26.47782156102523
812,26.013726582418749
2,1, 7,21, 0, 2, 0.00,15.00,SummerDesignDay
8,19.339418379179575
11,3776402255.1650035
252,1799543874.28023
2,1, 7,21, 0, 2,15.00,30.00,SummerDesignDay
8,19.310398399050294
11,3782018133.8682219
252,1614319142.6855026
2,1, 7,21, 0, 2,30.00,45.00,SummerDesignDay
8,19.281346189070228
11,3782972061.2922456
252,1614319142.6855026
2,1, 7,21, 0, 2,45.00,60.00,SummerDesignDay
8,19.25226217922265
11,3782870517.950979
252,1614319142.6855026
2,1, 7,21, 0, 2, 0.00,60.00,SummerDesignDay
692,24.458976951894337
732,26.444529776450837
772,26.609896832122368
812,26.094864824755367
2,1, 7,21, 0, 3, 0.00,15.00,SummerDesignDay
8,19.230428408408469
11,3781947738.157447
252,1614319142.6855026
2,1, 7,21, 0, 3,15.00,30.00,SummerDesignDay
8,19.208577345747888
11,3781322765.9227716
252,1614319142.6855026
2,1, 7,21, 0, 3,30.00,45.00,SummerDesignDay
8,19.18670730756924
11,3780278482.0239627
252,1614319142.6855026
2,1, 7,21, 0, 3,45.00,60.00,SummerDesignDay
8,19.164819553782637
11,3779833694.8050658
252,1614319142.6855026
2,1, 7,21, 0, 3, 0.00,60.00,SummerDesignDay
692,24.469299037814019
732,26.486949095985105
772,26.69938557903461
812,26.172742725970527
2,1, 7,21, 0, 4, 0.00,15.00,SummerDesignDay
8,19.14291293517813
11,3778913710.3639295
252,1614319142.6855026
2,1, 7,21, 0, 4,15.00,30.00,SummerDesignDay
8,19.12098348580758
11,3778135331.0755746
252,1614319142.6855026
2,1, 7,21, 0, 4,30.00,45.00,SummerDesignDay
8,19.099040706060096
11,3777509979.3152749
252,1614319142.6855026
2,1, 7,21, 0, 4,45.00,60.00,SummerDesignDay
8,19.0770792448193
11,3776497495.5784285
252,1614319142.6855026
2,1, 7,21, 0, 4, 0.00,60.00,SummerDesignDay
692,24.47553807191541
732,26.508056629281929
772,26.699837913235056
812,26.236654388093546
2,1, 7,21, 0, 5, 0.00,15.00,SummerDesignDay
8,19.06243010115264
11,3776035947.0520279
252,1614319142.6855026
2,1, 7,21, 0, 5,15.00,30.00,SummerDesignDay
8,19.047767571267707
11,3775787892.4149639
252,1614319142.6855026
2,1, 7,21, 0, 5,30.00,45.00,SummerDesignDay
8,19.033101337600248
11,3775160617.441862
252,1614319142.6855026
2,1, 7,21, 0, 5,45.00,60.00,SummerDesignDay
8,19.018427637799467
11,3659070034.195941
252,1614319142.6855026
2,1, 7,21, 0, 5, 0.00,60.00,SummerDesignDay
692,24.48052762144506
732,26.524385320938444
772,26.699845305115774
812,26.294919222043
2,1, 7,21, 0, 6, 0.00,15.00,SummerDesignDay
8,19.033101337600248
11,3730619838.2558186
252,1614319142.6855026
2,1, 7,21, 0, 6,15.00,30.00,SummerDesignDay
8,19.047767571267707
11,3664262314.503556
252,1614319142.6855026
2,1, 7,21, 0, 6,30.00,45.00,SummerDesignDay
8,19.06243010115264
11,3670061822.733642
252,1614319142.6855026
2,1, 7,21, 0, 6,45.00,60.00,SummerDesignDay
8,19.0770792448193
11,3657044416.8968427
252,1614319142.6855026
2,1, 7,21, 0, 6, 0.00,60.00,SummerDesignDay
692,24.50947540319838
732,26.558827247188846
772,25.699605842145865
812,25.69423932767882
2,1, 7,21, 0, 7, 0.00,15.00,SummerDesignDay
8,19.12829527807298
11,3936829461.6264054
252,2857916718.5665295
2,1, 7,21, 0, 7,15.00,30.00,SummerDesignDay
8,19.179411890099734
11,3792066110.9791457
252,2850223163.2813427
2,1, 7,21, 0, 7,30.00,45.00,SummerDesignDay
8,19.230428408408469
11,3859595078.217477
252,2850135810.799336
2,1, 7,21, 0, 7,45.00,60.00,SummerDesignDay
8,19.281346189070228
11,3850749748.554362
252,2850047283.5738766
2,1, 7,21, 0, 7, 0.00,60.00,SummerDesignDay
692,23.999414260824257
732,25.999874865722263
772,25.005641964714149
812,25.004062724926713
2,1, 7,21, 0, 8, 0.00,15.00,SummerDesignDay
8,19.404591898480026
11,4302169385.287476
252,3275744316.4951508
2,1, 7,21, 0, 8,15.00,30.00,SummerDesignDay
8,19.527259399674614
11,4223438421.395717
252,3275679058.3137285
2,1, 7,21, 0, 8,30.00,45.00,SummerDesignDay
8,19.649352983497768
11,4261319534.205262
252,3068680595.025401
2,1, 7,21, 0, 8,45.00,60.00,SummerDesignDay
8,19.770887505670989
11,4262715501.88993
252,3207229153.9770166
2,1, 7,21, 0, 8, 0.00,60.00,SummerDesignDay
692,23.989741300911257
732,25.987476509523185
772,24.04763476683887
812,24.0368014246429
2,1, 7,21, 0, 9, 0.00,15.00,SummerDesignDay
8,19.906033007607879
11,4251300273.2485277
252,3268806979.3922865
2,1, 7,21, 0, 9,15.00,30.00,SummerDesignDay
8,20.04048914686797
11,4256998926.73228
252,3268913405.3755419
2,1, 7,21, 0, 9,30.00,45.00,SummerDesignDay
8,20.174247070804034
11,4262470953.7004096
252,2986967464.3543999
2,1, 7,21, 0, 9,45.00,60.00,SummerDesignDay
8,20.30732185289352
11,4275680680.609697
252,3268760244.904861
2,1, 7,21, 0, 9, 0.00,60.00,SummerDesignDay
692,23.987696924243964
732,25.985169203305405
772,23.999134161831699
812,23.99813921405488
2,1, 7,21, 0,10, 0.00,15.00,SummerDesignDay
8,20.425808927886167
11,4236181024.688675
252,3231847439.6416838
2,1, 7,21, 0,10,15.00,30.00,SummerDesignDay
8,20.54375394491567
11,4247177468.2654607
252,2980594473.256692
2,1, 7,21, 0,10,30.00,45.00,SummerDesignDay
8,20.661161978641567
11,4262084531.8195898
252,3254391592.2037708
2,1, 7,21, 0,10,45.00,60.00,SummerDesignDay
8,20.778037156782458
11,4273956480.078737
252,2958097135.62938
2,1, 7,21, 0,10, 0.00,60.00,SummerDesignDay
692,23.98770631647868
732,25.985161822213905
772,23.999149909666344
812,23.998133977672205
2,1, 7,21, 0,11, 0.00,15.00,SummerDesignDay
8,20.880723789184299
11,4256901460.076035
252,3152565310.360051
2,1, 7,21, 0,11,15.00,30.00,SummerDesignDay
8,20.982997220428218
11,4264735826.055696
252,3036282500.6766
2,1, 7,21, 0,11,30.00,45.00,SummerDesignDay
8,21.084868854932993
11,4270357994.5044729
252,2963147206.7154738
2,1, 7,21, 0,11,45.00,60.00,SummerDesignDay
8,21.186337137460165
11,4274418404.070792
252,3225554916.7632248
2,1, 7,21, 0,11, 0.00,60.00,SummerDesignDay
692,23.98771374422193
732,25.985172163472435
772,23.999154259925576
812,23.998137155330768
2,1, 7,21, 0,12, 0.00,15.00,SummerDesignDay
8,21.25375761031924
11,4305146075.275778
252,2957954386.548895
2,1, 7,21, 0,12,15.00,30.00,SummerDesignDay
8,21.321001301623704
11,4308632215.384812
252,3254303335.021102
2,1, 7,21, 0,12,30.00,45.00,SummerDesignDay
8,21.388067863863197
11,4311131217.293428
252,2957937847.614539
2,1, 7,21, 0,12,45.00,60.00,SummerDesignDay
8,21.45495938709981
11,4316613818.790701
252,3254294115.286435
2,1, 7,21, 0,12, 0.00,60.00,SummerDesignDay
692,23.987693760171589
732,25.98516724596547
772,23.999159102749556
812,23.998155969652449
2,1, 7,21, 0,13, 0.00,15.00,SummerDesignDay
8,21.50834731769637
11,4302985824.119573
252,2942313858.625516
2,1, 7,21, 0,13,15.00,30.00,SummerDesignDay
8,21.561624484493195
11,4310556474.327101
252,3246509123.246236
2,1, 7,21, 0,13,30.00,45.00,SummerDesignDay
8,21.614785322779669
11,4318561296.117321
252,2942435296.576436
2,1, 7,21, 0,13,45.00,60.00,SummerDesignDay
8,21.667839996742449
11,4325892127.639272
252,3156458283.0561878
2,1, 7,21, 0,13, 0.00,60.00,SummerDesignDay
692,23.98763247073892
732,25.985126772469557
772,23.99913697125812
812,23.998146055871425
2,1, 7,21, 0,14, 0.00,15.00,SummerDesignDay
8,21.700944669131724
11,4306358053.424701
252,3018379439.3595716
2,1, 7,21, 0,14,15.00,30.00,SummerDesignDay
8,21.734001168312525
11,4312515029.904496
252,2925833723.1408417
2,1, 7,21, 0,14,30.00,45.00,SummerDesignDay
8,21.76701969568146
11,4326094521.337457
252,3174529057.409495
2,1, 7,21, 0,14,45.00,60.00,SummerDesignDay
8,21.799990419629109
11,4333195033.430849
252,2989646664.960307
2,1, 7,21, 0,14, 0.00,60.00,SummerDesignDay
692,23.987607065271257
732,25.985107111693478
772,23.999111157447837
812,23.998130778435305
2,1, 7,21, 0,15, 0.00,15.00,SummerDesignDay
8,21.799990419629109
11,4299890650.0333189
252,2908446610.1268475
2,1, 7,21, 0,15,15.00,30.00,SummerDesignDay
8,21.799990419629109
11,4299996244.435731
252,3019324258.408987
2,1, 7,21, 0,15,30.00,45.00,SummerDesignDay
8,21.799990419629109
11,4301621412.070095
252,3118545230.627862
2,1, 7,21, 0,15,45.00,60.00,SummerDesignDay
8,21.799990419629109
11,4312543375.364496
252,2908623651.2613036
2,1, 7,21, 0,15, 0.00,60.00,SummerDesignDay
692,23.987657114062093
732,25.98511457696213
772,23.9991079130034
812,23.99814696789933
2,1, 7,21, 0,16, 0.00,15.00,SummerDesignDay
8,21.76041850322365
11,4298705059.364745
252,2908385202.664809
2,1, 7,21, 0,16,15.00,30.00,SummerDesignDay
8,21.720784448671354
11,4294793962.452314
252,3094925151.988694
2,1, 7,21, 0,16,30.00,45.00,SummerDesignDay
8,21.681084832383254
11,4300689458.449938
252,3043027263.847648
2,1, 7,21, 0,16,45.00,60.00,SummerDesignDay
8,21.641326796728476
11,4296147844.828599
252,2908564293.112257
2,1, 7,21, 0,16, 0.00,60.00,SummerDesignDay
692,23.98770846875962
732,25.9851344762441
772,23.999115119144606
812,23.99818351574386
2,1, 7,21, 0,17, 0.00,15.00,SummerDesignDay
8,21.588221131429309
11,4294438026.252022
252,2908323048.5168
2,1, 7,21, 0,17,15.00,30.00,SummerDesignDay
8,21.53499969964235
11,4287365644.3518974
252,3170591236.7327048
2,1, 7,21, 0,17,30.00,45.00,SummerDesignDay
8,21.481667371722027
11,4283110646.9927527
252,2967496618.2293579
2,1, 7,21, 0,17,45.00,60.00,SummerDesignDay
8,21.42822317147698
11,4274033208.677113
252,2908504241.5833818
2,1, 7,21, 0,17, 0.00,60.00,SummerDesignDay
692,23.987739756200488
732,25.985155382291496
772,23.999121442842275
812,23.99821867337345
2,1, 7,21, 0,18, 0.00,15.00,SummerDesignDay
8,21.36126189357475
11,4303791077.03342
252,3163709174.1705696
2,1, 7,21, 0,18,15.00,30.00,SummerDesignDay
8,21.294124428217594
11,4292169475.0184538
252,3025157345.3617327
2,1, 7,21, 0,18,30.00,45.00,SummerDesignDay
8,21.22680984257423
11,4296244340.502953
252,2974263310.847198
2,1, 7,21, 0,18,45.00,60.00,SummerDesignDay
8,21.15931786227956
11,4287804626.509591
252,3214438502.5080635
2,1, 7,21, 0,18, 0.00,60.00,SummerDesignDay
692,23.987757189968336
732,25.985174237620844
772,23.9991345046786
812,23.998261252480803
2,1, 7,21, 0,19, 0.00,15.00,SummerDesignDay
8,21.057742794759656
11,4342679780.799641
252,3163480290.1368725
2,1, 7,21, 0,19,15.00,30.00,SummerDesignDay
8,20.95576719398477
11,4326362983.681332
252,3092304891.166341
2,1, 7,21, 0,19,30.00,45.00,SummerDesignDay
8,20.853380308726839
11,4320201330.594689
252,3268819757.3438279
2,1, 7,21, 0,19,45.00,60.00,SummerDesignDay
8,20.750583661392644
11,4324310115.113845
252,3268925264.676385
2,1, 7,21, 0,19, 0.00,60.00,SummerDesignDay
692,23.987773855814117
732,25.98519375433841
772,23.999153997403576
812,23.998316504375219
2,1, 7,21, 0,20, 0.00,15.00,SummerDesignDay
8,20.674937724862624
11,4338796958.327732
252,3061938019.7315399
2,1, 7,21, 0,20,15.00,30.00,SummerDesignDay
8,20.599073217758077
11,4312678963.105291
252,3213970427.9860165
2,1, 7,21, 0,20,30.00,45.00,SummerDesignDay
8,20.522979916101986
11,4475178417.602413
252,3275528133.9206726
2,1, 7,21, 0,20,45.00,60.00,SummerDesignDay
8,20.446661088459409
11,4461419919.803147
252,3275593263.509906
2,1, 7,21, 0,20, 0.00,60.00,SummerDesignDay
692,23.98773118915475
732,25.98519021604968
772,23.999171476998936
812,23.998358000349549
2,1, 7,21, 0,21, 0.00,15.00,SummerDesignDay
8,20.38404830308516
11,4400534261.012906
252,3125499321.3458325
2,1, 7,21, 0,21,15.00,30.00,SummerDesignDay
8,20.321288186392434
11,4400365541.900924
252,3109046244.678852
2,1, 7,21, 0,21,30.00,45.00,SummerDesignDay
8,20.258374971249056
11,4391112792.984843
252,3261807676.7029106
2,1, 7,21, 0,21,45.00,60.00,SummerDesignDay
8,20.19530361990708
11,4375045792.534094
252,2972845157.4544508
2,1, 7,21, 0,21, 0.00,60.00,SummerDesignDay
692,23.987640558237346
732,25.985135501135994
772,23.9991385336242
812,23.998321169643284
2,1, 7,21, 0,22, 0.00,15.00,SummerDesignDay
8,20.13208244849811
11,4400403064.835275
252,3268781487.573033
2,1, 7,21, 0,22,15.00,30.00,SummerDesignDay
8,20.068702801189454
11,4384171236.14886
252,3268889745.858697
2,1, 7,21, 0,22,30.00,45.00,SummerDesignDay
8,20.00517186709804
11,4376770191.644989
252,3058964154.1406099
2,1, 7,21, 0,22,45.00,60.00,SummerDesignDay
8,19.941485234887624
11,4380767536.275315
252,3196741948.679618
2,1, 7,21, 0,22, 0.00,60.00,SummerDesignDay
692,23.98761638016022
732,25.985119574274404
772,23.999121211867963
812,23.998304004099745
2,1, 7,21, 0,23, 0.00,15.00,SummerDesignDay
8,19.891841194221017
11,4184845423.112275
252,3254564341.507275
2,1, 7,21, 0,23,15.00,30.00,SummerDesignDay
8,19.842102082714037
11,4181424781.181973
252,2958063941.275204
2,1, 7,21, 0,23,30.00,45.00,SummerDesignDay
8,19.792267923486706
11,4178392836.5529458
252,3254359443.482422
2,1, 7,21, 0,23,45.00,60.00,SummerDesignDay
8,19.7423381019073
11,4177040693.653511
252,2958050655.666695
2,1, 7,21, 0,23, 0.00,60.00,SummerDesignDay
692,23.992021066611789
732,25.989961224937156
772,25.604558996246476
812,25.389199307162014
2,1, 7,21, 0,24, 0.00,15.00,SummerDesignDay
8,19.69231210730981
11,4083600122.796024
252,2914336128.0971825
2,1, 7,21, 0,24,15.00,30.00,SummerDesignDay
8,19.64219032081547
11,4073827430.970638
252,3104162253.0970737
2,1, 7,21, 0,24,30.00,45.00,SummerDesignDay
8,19.591971502420358
11,4070187928.812973
252,2981822074.6986849
2,1, 7,21, 0,24,45.00,60.00,SummerDesignDay
8,19.54165603023991
11,4067016657.67338
252,2890235739.282404
2,1, 7,21, 0,24, 0.00,60.00,SummerDesignDay
692,23.987714449688015
732,25.98525175795693
772,26.280762766098783
812,25.886315311687409
3,1, 7,21, 0,SummerDesignDay
693,61.64099442357463,60.91022751914089,17,15,63.25972009608027, 7, 5
733,53.83569098154924,53.5374558408667,17,30,54.71999948158312, 7, 5
773,46.50959554756222,41.65790124383745, 5,60,49.60252295586594,22,60
813,50.48436978271084,49.02476571725462, 5,60,53.0547171116298,22,60
4,1, 7
7,25.312875000000007,21.0,21, 5,60,30.3,21,14,60
1,BUFFALO NIAGARA INTL AP ANN CLG .4% CONDNS WB=>MDB 1,  42.93, -78.73,  -5.00, 215.00
2,1, 7,21, 0, 1, 0.00,15.00,SummerDesignDay
8,20.03448486328125
11,3966308805.6185204
252,2870910092.764448
2,1, 7,21, 0, 1,15.00,30.00,SummerDesignDay
8,19.894989013671876
11,3954923882.110292
252,2870774738.029045
2,1, 7,21, 0, 1,30.00,45.00,SummerDesignDay
8,19.7554931640625
11,3947795035.57024
252,2870636386.0803844
2,1, 7,21, 0, 1,45.00,60.00,SummerDesignDay
8,19.615996954992807
11,3940043009.580046
252,2870494961.507827
2,1, 7,21, 0, 1, 0.00,60.00,SummerDesignDay
692,24.39414497091662
732,25.985036568635363
772,26.40415504741517
812,25.65278607062132
2,1, 7,21, 0, 2, 0.00,15.00,SummerDesignDay
8,19.522994995117189
11,3788203712.689271
252,1799543874.28023
2,1, 7,21, 0, 2,15.00,30.00,SummerDesignDay
8,19.42999267578125
11,3789790855.9128005
252,1614319142.6855026
2,1, 7,21, 0, 2,30.00,45.00,SummerDesignDay
8,19.336990356445314
11,3786993362.982627
252,1614319142.6855026
2,1, 7,21, 0, 2,45.00,60.00,SummerDesignDay
8,19.243988037109376
11,3783152000.7136929
252,1614319142.6855026
2,1, 7,21, 0, 2, 0.00,60.00,SummerDesignDay
692,24.443495209638028
732,26.42462473992412
772,26.530777380697555
812,25.701938063561707
2,1, 7,21, 0, 3, 0.00,15.00,SummerDesignDay
8,19.174240112304689
11,3779344314.1279876
252,1614319142.6855026
2,1, 7,21, 0, 3,15.00,30.00,SummerDesignDay
8,19.1044921875
11,3775128596.7043907
252,1614319142.6855026
2,1, 7,21, 0, 3,30.00,45.00,SummerDesignDay
8,19.034744262695314
11,3771233156.8470475
252,1614319142.6855026
2,1, 7,21, 0, 3,45.00,60.00,SummerDesignDay
8,18.96499632356402
11,3767943869.57109
252,1614319142.6855026
2,1, 7,21, 0, 3, 0.00,60.00,SummerDesignDay
692,24.453241740682424
732,26.465027824588718
772,26.66043594481537
812,25.748376874131105
2,1, 7,21, 0, 4, 0.00,15.00,SummerDesignDay
8,18.89524540049439
11,3764599419.1646559
252,1614319142.6855026
2,1, 7,21, 0, 4,15.00,30.00,SummerDesignDay
8,18.825485229492189
11,3761050823.614859
252,1614319142.6855026
2,1, 7,21, 0, 4,30.00,45.00,SummerDesignDay
8,18.7557373046875
11,3757875098.636465
252,1614319142.6855026
2,1, 7,21, 0, 4,45.00,60.00,SummerDesignDay
8,18.685989379882814
11,3754267711.0777666
252,1614319142.6855026
2,1, 7,21, 0, 4, 0.00,60.00,SummerDesignDay
692,24.459006730216286
732,26.485050887913958
772,26.69977507252322
812,25.784741390933847
2,1, 7,21, 0, 5, 0.00,15.00,SummerDesignDay
8,18.63949530606028
11,3751997619.675434
252,1614319142.6855026
2,1, 7,21, 0, 5,15.00,30.00,SummerDesignDay
8,18.592987060546876
11,3750018384.1010076
252,1614319142.6855026
2,1, 7,21, 0, 5,30.00,45.00,SummerDesignDay
8,18.54649177908492
11,3747671360.8135077
252,1614319142.6855026
2,1, 7,21, 0, 5,45.00,60.00,SummerDesignDay
8,18.49999810986028
11,3629871877.968358
252,1614319142.6855026
2,1, 7,21, 0, 5, 0.00,60.00,SummerDesignDay
692,24.463610860551765
732,26.500503283268786
772,26.699809027570667
812,25.816670425972107
2,1, 7,21, 0, 6, 0.00,15.00,SummerDesignDay
8,18.54649177908492
11,3679753852.612736
252,1614319142.6855026
2,1, 7,21, 0, 6,15.00,30.00,SummerDesignDay
8,18.592987060546876
11,3634294846.7578189
252,1614319142.6855026
2,1, 7,21, 0, 6,30.00,45.00,SummerDesignDay
8,18.63949530606028
11,3631698915.5210516
252,1614319142.6855026
2,1, 7,21, 0, 6,45.00,60.00,SummerDesignDay
8,18.685989379882814
11,3623417137.727649
252,1614319142.6855026
2,1, 7,21, 0, 6, 0.00,60.00,SummerDesignDay
692,24.4920079950729
732,26.533862522048677
772,25.697883666160707
812,25.698118675783854
2,1, 7,21, 0, 7, 0.00,15.00,SummerDesignDay
8,18.848739624023439
11,3895643584.8633148
252,2857916718.5665295
2,1, 7,21, 0, 7,15.00,30.00,SummerDesignDay
8,19.011489868164064
11,3763472811.628258
252,2850223163.2813427
2,1, 7,21, 0, 7,30.00,45.00,SummerDesignDay
8,19.174240112304689
11,3835463771.896374
252,2850135810.799336
2,1, 7,21, 0, 7,45.00,60.00,SummerDesignDay
8,19.336990356445314
11,3834639145.434902
252,2850047283.5738766
2,1, 7,21, 0, 7, 0.00,60.00,SummerDesignDay
692,23.999035384929603
732,25.99924488567321
772,25.00555233771542
812,25.00343963271308
2,1, 7,21, 0, 8, 0.00,15.00,SummerDesignDay
8,19.73223876953125
11,4302351689.767986
252,3275744316.4951508
2,1, 7,21, 0, 8,15.00,30.00,SummerDesignDay
8,20.127487182617189
11,4234628418.1162655
252,3275679058.3137285
2,1, 7,21, 0, 8,30.00,45.00,SummerDesignDay
8,20.522735595703126
11,4301709992.485918
252,3068680595.025401
2,1, 7,21, 0, 8,45.00,60.00,SummerDesignDay
8,20.917992548817627
11,4330903264.771812
252,3207229153.9770166
2,1, 7,21, 0, 8, 0.00,60.00,SummerDesignDay
692,23.98975298461273
732,25.987453882589173
772,24.046074368236434
812,24.029482101992703
2,1, 7,21, 0, 9, 0.00,15.00,SummerDesignDay
8,21.35974061960832
11,4353721382.524742
252,3268806979.3922865
2,1, 7,21, 0, 9,15.00,30.00,SummerDesignDay
8,21.80149265905943
11,4390832889.530986
252,3268913405.3755419
2,1, 7,21, 0, 9,30.00,45.00,SummerDesignDay
8,22.243240356445314
11,4458649909.474447
252,2986967464.3543999
2,1, 7,21, 0, 9,45.00,60.00,SummerDesignDay
8,22.420023807696297
11,4494490929.422537
252,3268760244.904861
2,1, 7,21, 0, 9, 0.00,60.00,SummerDesignDay
692,23.987716524997024
732,25.985119698775013
772,23.999082110763987
812,23.997493828512284
2,1, 7,21, 0,10, 0.00,15.00,SummerDesignDay
8,22.52939429544905
11,4466845715.562731
252,3231847439.6416838
2,1, 7,21, 0,10,15.00,30.00,SummerDesignDay
8,22.638294333869877
11,4488867790.611277
252,2980594473.256692
2,1, 7,21, 0,10,30.00,45.00,SummerDesignDay
8,22.74672657663008
11,4514104988.604883
252,3254391592.2037708
2,1, 7,21, 0,10,45.00,60.00,SummerDesignDay
8,22.854695006230427
11,4536133663.014244
252,2958097135.62938
2,1, 7,21, 0,10, 0.00,60.00,SummerDesignDay
692,23.98768651699502
732,25.98506557526602
772,23.999054502513425
812,23.997164813087517
2,1, 7,21, 0,11, 0.00,15.00,SummerDesignDay
8,22.949580571591015
11,4527877821.095684
252,3152565310.360051
2,1, 7,21, 0,11,15.00,30.00,SummerDesignDay
8,23.0441059976386
11,4544695863.946314
252,3036282500.6766
2,1, 7,21, 0,11,30.00,45.00,SummerDesignDay
8,23.138280905067519
11,4559489157.850401
252,2963147206.7154738
2,1, 7,21, 0,11,45.00,60.00,SummerDesignDay
8,23.232104587122938
11,4572939452.097654
252,3225554916.7632248
2,1, 7,21, 0,11, 0.00,60.00,SummerDesignDay
692,23.987690103976264
732,25.985072981359435
772,23.999052416533247
812,23.997127763077807
2,1, 7,21, 0,12, 0.00,15.00,SummerDesignDay
8,23.294458182257715
11,4609733731.464543
252,2957954386.548895
2,1, 7,21, 0,12,15.00,30.00,SummerDesignDay
8,23.356656880409554
11,4619615466.868702
252,3254303335.021102
2,1, 7,21, 0,12,30.00,45.00,SummerDesignDay
8,23.41870192494561
11,4628695126.497888
252,2957937847.614539
2,1, 7,21, 0,12,45.00,60.00,SummerDesignDay
8,23.480593542408348
11,4640964033.439949
252,3254294115.286435
2,1, 7,21, 0,12, 0.00,60.00,SummerDesignDay
692,23.987670838256468
732,25.98506865985172
772,23.999056997164695
812,23.997151641050487
2,1, 7,21, 0,13, 0.00,15.00,SummerDesignDay
8,23.529998675577663
11,4632909112.548179
252,2942313858.625516
2,1, 7,21, 0,13,15.00,30.00,SummerDesignDay
8,23.579306427538606
11,4646392768.35335
252,3246509123.246236
2,1, 7,21, 0,13,30.00,45.00,SummerDesignDay
8,23.62851242394268
11,4660467408.963595
252,2942435296.576436
2,1, 7,21, 0,13,45.00,60.00,SummerDesignDay
8,23.677626430315248
11,4673879278.363687
252,3156458283.0561878
2,1, 7,21, 0,13, 0.00,60.00,SummerDesignDay
692,23.987610299796218
732,25.98502864704188
772,23.999034146555205
812,23.99714048987442
2,1, 7,21, 0,14, 0.00,15.00,SummerDesignDay
8,23.708274654966226
11,4658000714.143994
252,3018379439.3595716
2,1, 7,21, 0,14,15.00,30.00,SummerDesignDay
8,23.738881563111908
11,4667725787.248223
252,2925833723.1408417
2,1, 7,21, 0,14,30.00,45.00,SummerDesignDay
8,23.76945433566311
11,4671191409.704079
252,3174529057.409495
2,1, 7,21, 0,14,45.00,60.00,SummerDesignDay
8,23.799986320868798
11,4680961675.661426
252,2989646664.960307
2,1, 7,21, 0,14, 0.00,60.00,SummerDesignDay
692,23.98759129115497
732,25.985009587864515
772,23.999007765919545
812,23.997124901175846
2,1, 7,21, 0,15, 0.00,15.00,SummerDesignDay
8,23.799986320868798
11,4646083172.904335
252,2908446610.1268475
2,1, 7,21, 0,15,15.00,30.00,SummerDesignDay
8,23.799986320868798
11,4644771981.601084
252,3019324258.408987
2,1, 7,21, 0,15,30.00,45.00,SummerDesignDay
8,23.799986320868798
11,4645132666.416496
252,3118545230.627862
2,1, 7,21, 0,15,45.00,60.00,SummerDesignDay
8,23.799986320868798
11,4645215369.770723
252,2908623651.2613036
2,1, 7,21, 0,15, 0.00,60.00,SummerDesignDay
692,23.987628922498606
732,25.98502209471628
772,23.999004580970618
812,23.99714759646139
2,1, 7,21, 0,16, 0.00,15.00,SummerDesignDay
8,23.763342191943058
11,4643772806.877027
252,2908385202.664809
2,1, 7,21, 0,16,15.00,30.00,SummerDesignDay
8,23.726643883214217
11,4643380634.104492
252,3094925151.988694
2,1, 7,21, 0,16,30.00,45.00,SummerDesignDay
8,23.689888257911428
11,4651929435.442278
252,3043027263.847648
2,1, 7,21, 0,16,45.00,60.00,SummerDesignDay
8,23.653081835774505
11,4651128729.783215
252,2908564293.112257
2,1, 7,21, 0,16, 0.00,60.00,SummerDesignDay
692,23.987689449765154
732,25.985033303326387
772,23.99901214174724
812,23.997193920383219
2,1, 7,21, 0,17, 0.00,15.00,SummerDesignDay
8,23.603923719146495
11,4655116773.252189
252,2908323048.5168
2,1, 7,21, 0,17,15.00,30.00,SummerDesignDay
8,23.55466446732659
11,4654492206.943009
252,3170591236.7327048
2,1, 7,21, 0,17,30.00,45.00,SummerDesignDay
8,23.505308555416005
11,4657278476.421799
252,2967496618.2293579
2,1, 7,21, 0,17,45.00,60.00,SummerDesignDay
8,23.4558543827806
11,4601865975.435336
252,2908504241.5833818
2,1, 7,21, 0,17, 0.00,60.00,SummerDesignDay
692,23.987722255418526
732,25.985058764869256
772,23.99901863353214
812,23.997236901729595
2,1, 7,21, 0,18, 0.00,15.00,SummerDesignDay
8,23.393901322312414
11,4618930176.220231
252,3163709174.1705696
2,1, 7,21, 0,18,15.00,30.00,SummerDesignDay
8,23.33179517863699
11,4600716391.733273
252,3025157345.3617327
2,1, 7,21, 0,18,30.00,45.00,SummerDesignDay
8,23.269534315322305
11,4598442507.005658
252,2974263310.847198
2,1, 7,21, 0,18,45.00,60.00,SummerDesignDay
8,23.207119318496696
11,4583984155.952474
252,3214438502.5080635
2,1, 7,21, 0,18, 0.00,60.00,SummerDesignDay
692,23.987740246678649
732,25.985077971272589
772,23.999032018701564
812,23.997290007518147
2,1, 7,21, 0,19, 0.00,15.00,SummerDesignDay
8,23.11320144187493
11,4629379627.368788
252,3163480290.1368725
2,1, 7,21, 0,19,15.00,30.00,SummerDesignDay
8,23.0189367248522
11,4604027251.740494
252,3092304891.166341
2,1, 7,21, 0,19,30.00,45.00,SummerDesignDay
8,22.924312313607478
11,4589163536.071452
252,3268819757.3438279
2,1, 7,21, 0,19,45.00,60.00,SummerDesignDay
8,22.82933132300861
11,4585051496.153335
252,3268925264.676385
2,1, 7,21, 0,19, 0.00,60.00,SummerDesignDay
692,23.987757499571968
732,25.98509754281135
772,23.999051818238404
812,23.997360719275539
2,1, 7,21, 0,20, 0.00,15.00,SummerDesignDay
8,22.75945089348938
11,4594099462.131566
252,3061938019.7315399
2,1, 7,21, 0,20,15.00,30.00,SummerDesignDay
8,22.689380537094857
11,4562172425.255123
252,3213970427.9860165
2,1, 7,21, 0,20,30.00,45.00,SummerDesignDay
8,22.6191110648834
11,4719284805.9707989
252,3275528133.9206726
2,1, 7,21, 0,20,45.00,60.00,SummerDesignDay
8,22.548645905899027
11,4700671105.586913
252,3275593263.509906
2,1, 7,21, 0,20, 0.00,60.00,SummerDesignDay
692,23.987711760774155
732,25.985092504413055
772,23.99906883401433
812,23.997414283693869
2,1, 7,21, 0,21, 0.00,15.00,SummerDesignDay
8,22.490844247869313
11,4636422343.283901
252,3125499321.3458325
2,1, 7,21, 0,21,15.00,30.00,SummerDesignDay
8,22.43291428736413
11,4631169266.1539549
252,3109046244.678852
2,1, 7,21, 0,21,30.00,45.00,SummerDesignDay
8,22.374851547664414
11,4616945036.133492
252,3261807676.7029106
2,1, 7,21, 0,21,45.00,60.00,SummerDesignDay
8,22.312987690310977
11,4595309034.474863
252,2972845157.4544508
2,1, 7,21, 0,21, 0.00,60.00,SummerDesignDay
692,23.98761880399859
732,25.98503675597918
772,23.99903344172069
812,23.99736388189347
2,1, 7,21, 0,22, 0.00,15.00,SummerDesignDay
8,22.103744506835939
11,4591679610.365439
252,3268781487.573033
2,1, 7,21, 0,22,15.00,30.00,SummerDesignDay
8,21.894485473632814
11,4545607578.727376
252,3268889745.858697
2,1, 7,21, 0,22,30.00,45.00,SummerDesignDay
8,21.685237627773917
11,4517808105.764728
252,3058964154.1406099
2,1, 7,21, 0,22,45.00,60.00,SummerDesignDay
8,21.475995587251039
11,4505435239.203971
252,3196741948.679618
2,1, 7,21, 0,22, 0.00,60.00,SummerDesignDay
692,23.987574037155555
732,25.98501288332492
772,23.999013583590835
812,23.99737044490175
2,1, 7,21, 0,23, 0.00,15.00,SummerDesignDay
8,21.313245597319697
11,4293947179.2781226
252,3254564341.507275
2,1, 7,21, 0,23,15.00,30.00,SummerDesignDay
8,21.150492515933274
11,4279577667.47375
252,2958063941.275204
2,1, 7,21, 0,23,30.00,45.00,SummerDesignDay
8,20.98774680278067
11,4265936970.927874
252,3254359443.482422
2,1, 7,21, 0,23,45.00,60.00,SummerDesignDay
8,20.824995071347869
11,4254174528.5925295
252,2958050655.666695
2,1, 7,21, 0,23, 0.00,60.00,SummerDesignDay
692,23.991998598136559
732,25.98990582533082
772,25.562170647616754
812,25.17386738398317
2,1, 7,21, 0,24, 0.00,15.00,SummerDesignDay
8,20.662246704101564
11,4150551769.071786
252,2914336128.0971825
2,1, 7,21, 0,24,15.00,30.00,SummerDesignDay
8,20.499496459960939
11,4130788669.836457
252,3104162253.0970737
2,1, 7,21, 0,24,30.00,45.00,SummerDesignDay
8,20.336746215820314
11,4117385167.8917
252,2981822074.6986849
2,1, 7,21, 0,24,45.00,60.00,SummerDesignDay
8,20.173995840857065
11,4104673262.358337
252,2890235739.282404
2,1, 7,21, 0,24, 0.00,60.00,SummerDesignDay
692,23.987664469681655
732,25.985175504139048
772,26.215409587485323
812,25.56866272975658
3,1, 7,21, 0,SummerDesignDay
693,62.02446921175372,61.36441627404323,17,15,63.44057980272155, 7, 5
733,54.105325929857567,53.8069680281704, 2,15,54.839317464327688, 7, 5
773,47.07085935476658,41.897565550967808, 5,60,50.20003732779935,22,60
813,54.192590407847209,51.309950404367658, 6,60,57.359174219385817,22,30
4,1, 7
7,22.812875000000003,18.5,21, 5,60,27.8,21,14,60
1,BUFFALO NIAGARA INTL AP ANN HTG 99.6% CONDNS DB 1,  42.93, -78.73,  -5.00, 215.00
2,1, 1,21, 0, 1, 0.00,15.00,WinterDesignDay
8,-16.3
11,886018937.4781339
252,6819472135.000753