Program Version,EnergyPlus, Version 9.1.0-08d2e308bb, YMD=2020.01.03 10:58
1,5,Environment Title[],Latitude[deg],Longitude[deg],Time Zone[],Elevation[m]
2,8,Day of Simulation[],Month[],Day of Month[],DST Indicator[1=yes 0=no],Hour[],StartMinute[],EndMinute[],DayType
3,5,Cumulative Day of Simulation[],Month[],Day of Month[],DST Indicator[1=yes 0=no],DayType  ! When Daily Report Variables Requested
4,2,Cumulative Days of Simulation[],Month[]  ! When Monthly Report Variables Requested
5,1,Cumulative Days of Simulation[] ! When Run Period Report Variables Requested
6,1,Calendar Year of Simulation[] ! When Annual Report Variables Requested
7,9,Environment,Site Outdoor Air Drybulb Temperature [C] !Monthly [Value,Min,Day,Hour,Minute,Max,Day,Hour,Minute]
8,1,Environment,Site Outdoor Air Wetbulb Temperature [C] !TimeStep
692,1,BUILDING STORY 1 THERMALZONE,Zone Air Temperature [C] !Hourly
693,7,BUILDING STORY 1 THERMALZONE,Zone Air Relative Humidity [%] !Daily [Value,Min,Hour,Minute,Max,Hour,Minute]
732,1,BUILDING STORY 2 THERMALZONE,Zone Air Temperature [C] !Hourly
733,7,BUILDING STORY 2 THERMALZONE,Zone Air Relative Humidity [%] !Daily [Value,Min,Hour,Minute,Max,Hour,Minute]
772,1,BUILDING STORY 3 THERMALZONE,Zone Air Temperature [C] !Hourly
773,7,BUILDING STORY 3 THERMALZONE,Zone Air Relative Humidity [%] !Daily [Value,Min,Hour,Minute,Max,Hour,Minute]
812,1,BUILDING STORY 4 THERMALZONE,Zone Air Temperature [C] !Hourly
813,7,BUILDING STORY 4 THERMALZONE,Zone Air Relative Humidity [%] !Daily [Value,Min,Hour,Minute,Max,Hour,Minute]
11,1,Electricity:Facility [J] !TimeStep
252,1,Gas:Facility [J] !TimeStep
End of Data Dictionary
1,BUFFALO NIAGARA INTL AP ANN CLG .4% CONDNS DB=>MWB,  42.93, -78.73,  -5.00, 215.00
2,1, 7,21, 0, 1, 0.00,60.00,SummerDesignDay
8,19.36840579326866
11,18595612129.73898
252,11483093431.488966
2,1, 7,21, 0, 1, 0.00,60.00,SummerDesignDay
692,24.05379045850698
732,26.375171055330307
772,26.2441873592355
812,25.975442755924008
2,1, 7,21, 0, 2, 0.00,60.00,SummerDesignDay
8,19.25226217922265
11,17943801560.887456
252,6642334253.593693
2,1, 7,21, 0, 2, 0.00,60.00,SummerDesignDay
692,24.032418062477189
732,26.676771552585387
772,26.635617492485964
812,26.503347632594726
2,1, 7,21, 0, 3, 0.00,60.00,SummerDesignDay
8,19.164819553782637
11,17961326822.375585
252,6457276570.74201
2,1, 7,21, 0, 3, 0.00,60.00,SummerDesignDay
692,24.031215274779208
732,26.6985551224201
772,26.69580680208586
812,26.559687040885007
2,1, 7,21, 0, 4, 0.00,60.00,SummerDesignDay
8,19.0770792448193
11,17941534655.69847
252,6457276570.74201
2,1, 7,21, 0, 4, 0.00,60.00,SummerDesignDay
692,24.027636975965668
732,26.69927466216054
772,26.698702281303136
812,26.53660547943015
2,1, 7,21, 0, 5, 0.00,60.00,SummerDesignDay
8,19.018427637799467
11,17932172957.996587
252,6457276570.74201
2,1, 7,21, 0, 5, 0.00,60.00,SummerDesignDay
692,24.02226917101704
732,26.699404174851119
772,26.69921507445876
812,26.541419852260114
2,1, 7,21, 0, 6, 0.00,60.00,SummerDesignDay
8,19.0770792448193
11,17161106076.675108
252,6457276570.74201
2,1, 7,21, 0, 6, 0.00,60.00,SummerDesignDay
692,24.05983974225458
732,25.765296518017494
772,25.766846560677693
812,26.617612069394796
2,1, 7,21, 0, 7, 0.00,60.00,SummerDesignDay
8,19.281346189070228
11,17839527978.868425
252,11408673970.439888
2,1, 7,21, 0, 7, 0.00,60.00,SummerDesignDay
692,24.003238503057724
732,25.108107823239057
772,25.10993230633022
812,26.201995492563534
2,1, 7,21, 0, 8, 0.00,60.00,SummerDesignDay
8,19.770887505670989
11,19757724070.629236
252,12827009976.945118
2,1, 7,21, 0, 8, 0.00,60.00,SummerDesignDay
692,23.985729846146258
732,24.113278299881367
772,24.114869721162003
812,26.032322084606958
2,1, 7,21, 0, 9, 0.00,60.00,SummerDesignDay
8,20.30732185289352
11,19867659574.746835
252,12792979605.772797
2,1, 7,21, 0, 9, 0.00,60.00,SummerDesignDay
692,23.97675130567545
732,24.001803753716943
772,24.001930634806038
812,25.983639706249837
2,1, 7,21, 0,10, 0.00,60.00,SummerDesignDay
8,20.778037156782458
11,20001563040.94391
252,12424288979.677351
2,1, 7,21, 0,10, 0.00,60.00,SummerDesignDay
692,23.97373682898365
732,23.999311632663067
772,23.999363192339673
812,25.97612240913023
2,1, 7,21, 0,11, 0.00,60.00,SummerDesignDay
8,21.186337137460165
11,20120312578.575204
252,12377344449.578003
2,1, 7,21, 0,11, 0.00,60.00,SummerDesignDay
692,23.972293386120155
732,23.998393185402624
772,23.998423160956567
812,25.972082464856937
2,1, 7,21, 0,12, 0.00,60.00,SummerDesignDay
8,21.45495938709981
11,20353468321.449266
252,12424919122.314538
2,1, 7,21, 0,12, 0.00,60.00,SummerDesignDay
692,23.971608611140878
732,23.998109850518938
772,23.99811973457659
812,25.96998007888241
2,1, 7,21, 0,13, 0.00,60.00,SummerDesignDay
8,21.667839996742449
11,20406996551.224454
252,12287140044.428158
2,1, 7,21, 0,13, 0.00,60.00,SummerDesignDay
692,23.97119670152586
732,23.997998280244479
772,23.997973829651433
812,25.968894828509943
2,1, 7,21, 0,14, 0.00,60.00,SummerDesignDay
8,21.799990419629109
11,20441001149.03467
252,12109349168.140652
2,1, 7,21, 0,14, 0.00,60.00,SummerDesignDay
692,23.970894004505199
732,23.997877490574394
772,23.997828572923276
812,25.968339378379519
2,1, 7,21, 0,15, 0.00,60.00,SummerDesignDay
8,21.799990419629109
11,20334471842.465234
252,11955094664.024819
2,1, 7,21, 0,15, 0.00,60.00,SummerDesignDay
692,23.970761154111754
732,23.99776505638166
772,23.99770119994739
812,25.96814720515635
2,1, 7,21, 0,16, 0.00,60.00,SummerDesignDay
8,21.641326796728476
11,20223151060.25429
252,11954880826.34323
2,1, 7,21, 0,16, 0.00,60.00,SummerDesignDay
692,23.970774134849369
732,23.997727336534238
772,23.99765062934296
812,25.96821346683645
2,1, 7,21, 0,17, 0.00,60.00,SummerDesignDay
8,21.42822317147698
11,20070196307.964464
252,11954663425.161755
2,1, 7,21, 0,17, 0.00,60.00,SummerDesignDay
692,23.970837470638597
732,23.997741517871086
772,23.997656717293535
812,25.96837713277335
2,1, 7,21, 0,18, 0.00,60.00,SummerDesignDay
8,21.15931786227956
11,19996566187.5483
252,12377324664.271855
2,1, 7,21, 0,18, 0.00,60.00,SummerDesignDay
692,23.97093248574511
732,23.997783805493567
772,23.997698828316297
812,25.968566986652914
2,1, 7,21, 0,19, 0.00,60.00,SummerDesignDay
8,20.750583661392644
11,19893767370.836637
252,12793779311.189438
2,1, 7,21, 0,19, 0.00,60.00,SummerDesignDay
692,23.97107861646302
732,23.99787542136668
772,23.997797627241778
812,25.968818534759376
2,1, 7,21, 0,20, 0.00,60.00,SummerDesignDay
8,20.446661088459409
11,19603196773.752534
252,12827633190.161774
2,1, 7,21, 0,20, 0.00,60.00,SummerDesignDay
692,23.971201572878063
732,23.998015224615594
772,23.997941399750908
812,25.969011507125239
2,1, 7,21, 0,21, 0.00,60.00,SummerDesignDay
8,20.19530361990708
11,20179866960.297266
252,12469205942.99892
2,1, 7,21, 0,21, 0.00,60.00,SummerDesignDay
692,23.971078400111833
732,23.998057958169537
772,23.997981955029425
812,25.96891294720536
2,1, 7,21, 0,22, 0.00,60.00,SummerDesignDay
8,19.941485234887624
11,20090705793.4149
252,12792852836.528738
2,1, 7,21, 0,22, 0.00,60.00,SummerDesignDay
692,23.970882969355939
732,23.99795857191097
772,23.99789319576544
812,25.968710985199235
2,1, 7,21, 0,23, 0.00,60.00,SummerDesignDay
8,19.7423381019073
11,19343423737.358137
252,12424564355.445488
2,1, 7,21, 0,23, 0.00,60.00,SummerDesignDay
692,23.985188277360828
732,25.569112900080755
772,25.440333122608537
812,25.98111199439639
2,1, 7,21, 0,24, 0.00,60.00,SummerDesignDay
8,19.54165603023991
11,18852050294.474504
252,11890422401.055802
2,1, 7,21, 0,24, 0.00,60.00,SummerDesignDay
692,23.982324809518987
732,26.061063946457304
772,25.93119692860036
812,25.978507999655169
3,1, 7,21, 0,SummerDesignDay
693,61.15012576684068,60.64231843498759,17,60,61.73500163945636, 2,60
733,46.46878368204268,41.64731795111733, 5,60,49.606902898566129,22,60
773,46.71576564519228,41.74907072071192, 5,60,49.891103607206357,22,60
813,51.10895189980564,50.06940225713552,15,60,52.138218271087669, 1,60
4,1, 7
7,25.312875000000003,21.0,21, 5,60,30.3,21,14,60
1,BUFFALO NIAGARA INTL AP ANN CLG .4% CONDNS WB=>MDB,  42.93, -78.73,  -5.00, 215.00
2,1, 7,21, 0, 1, 0.00,60.00,SummerDesignDay
8,19.615996954992807
11,18624200081.934347
252,11483093431.488966
2,1, 7,21, 0, 1, 0.00,60.00,SummerDesignDay
692,24.033090415215108
732,26.262041097519295
772,26.118417335303108
812,25.973813373448967
2,1, 7,21, 0, 2, 0.00,60.00,SummerDesignDay
8,19.243988037109376
11,17948231491.453565
252,6642334253.593693
2,1, 7,21, 0, 2, 0.00,60.00,SummerDesignDay
692,24.01593739586484
732,26.565819018090374
772,26.481800300174993
812,26.307455094087055
2,1, 7,21, 0, 3, 0.00,60.00,SummerDesignDay
8,18.96499632356402
11,17866905512.121274
252,6457276570.74201
2,1, 7,21, 0, 3, 0.00,60.00,SummerDesignDay
692,24.013481280429727
732,26.681258736983826
772,26.67028964289819
812,26.332536537070156
2,1, 7,21, 0, 4, 0.00,60.00,SummerDesignDay
8,18.685989379882814
11,17782873415.01049
252,6457276570.74201
2,1, 7,21, 0, 4, 0.00,60.00,SummerDesignDay
692,24.00933813176768
732,26.696300829533329
772,26.69427032994417
812,26.306356546168805
2,1, 7,21, 0, 5, 0.00,60.00,SummerDesignDay
8,18.49999810986028
11,17724782756.632364
252,6457276570.74201
2,1, 7,21, 0, 5, 0.00,60.00,SummerDesignDay
692,24.004066035409669
732,26.698818345606904
772,26.698357971501488
812,26.300603136331416
2,1, 7,21, 0, 6, 0.00,60.00,SummerDesignDay
8,18.685989379882814
11,16991581407.962244
252,6457276570.74201
2,1, 7,21, 0, 6, 0.00,60.00,SummerDesignDay
692,24.040712186520154
732,25.763859635208879
772,25.765225849869475
812,26.369374262509216
2,1, 7,21, 0, 7, 0.00,60.00,SummerDesignDay
8,19.336990356445314
11,17753561194.756296
252,11408673970.439888
2,1, 7,21, 0, 7, 0.00,60.00,SummerDesignDay
692,23.997193030013379
732,25.106289548717017
772,25.107945111749094
812,26.11155517378911
2,1, 7,21, 0, 8, 0.00,60.00,SummerDesignDay
8,20.917992548817627
11,20182283581.846914
252,12827009976.945118
2,1, 7,21, 0, 8, 0.00,60.00,SummerDesignDay
692,23.984587985743454
732,24.11155136025303
772,24.11302393291006
812,26.00851523961707
2,1, 7,21, 0, 9, 0.00,60.00,SummerDesignDay
8,22.420023807696297
11,21261677035.665559
252,12792979605.772797
2,1, 7,21, 0, 9, 0.00,60.00,SummerDesignDay
692,23.97665817460938
732,24.0014737916095
772,24.001555112619579
812,25.976828678779606
2,1, 7,21, 0,10, 0.00,60.00,SummerDesignDay
8,22.854695006230427
11,21739603402.830018
252,12424288979.677351
2,1, 7,21, 0,10, 0.00,60.00,SummerDesignDay
692,23.9736496009454
732,23.99897450745781
772,23.99897224326852
812,25.970431676295207
2,1, 7,21, 0,11, 0.00,60.00,SummerDesignDay
8,23.232104587122938
11,22208117931.692728
252,12377344449.578003
2,1, 7,21, 0,11, 0.00,60.00,SummerDesignDay
692,23.972181810010605
732,23.998028103658628
772,23.998000108033034
812,25.966962662131296
2,1, 7,21, 0,12, 0.00,60.00,SummerDesignDay
8,23.480593542408348
11,22354161184.13674
252,12424919122.314538
2,1, 7,21, 0,12, 0.00,60.00,SummerDesignDay
692,23.97150147102769
732,23.997740605297268
772,23.99768977249907
812,25.965277673163489
2,1, 7,21, 0,13, 0.00,60.00,SummerDesignDay
8,23.677626430315248
11,22288652583.50211
252,12287140044.428158
2,1, 7,21, 0,13, 0.00,60.00,SummerDesignDay
692,23.971100256293796
732,23.997629967117768
772,23.99754368445363
812,25.96445069959529
2,1, 7,21, 0,14, 0.00,60.00,SummerDesignDay
8,23.799986320868798
11,22222869621.544649
252,12109349168.140652
2,1, 7,21, 0,14, 0.00,60.00,SummerDesignDay
692,23.970807501648158
732,23.997504397127359
772,23.997390920634638
812,25.964049397986238
2,1, 7,21, 0,15, 0.00,60.00,SummerDesignDay
8,23.799986320868798
11,22104314042.937494
252,11955094664.024819
2,1, 7,21, 0,15, 0.00,60.00,SummerDesignDay
692,23.970685207824784
732,23.997389870488417
772,23.99725905580975
812,25.96396815182109
2,1, 7,21, 0,16, 0.00,60.00,SummerDesignDay
8,23.653081835774505
11,22081061241.49511
252,11954880826.34323
2,1, 7,21, 0,16, 0.00,60.00,SummerDesignDay
692,23.97071067942194
732,23.99735331165609
772,23.99720881149786
812,25.964121273577779
2,1, 7,21, 0,17, 0.00,60.00,SummerDesignDay
8,23.4558543827806
11,22049161818.7751
252,11954663425.161755
2,1, 7,21, 0,17, 0.00,60.00,SummerDesignDay
692,23.970783885801099
732,23.997369522311467
772,23.99721714654789
812,25.964343363542473
2,1, 7,21, 0,18, 0.00,60.00,SummerDesignDay
8,23.207119318496696
11,22153269555.872804
252,12377324664.271855
2,1, 7,21, 0,18, 0.00,60.00,SummerDesignDay
692,23.97088517135102
732,23.9974156069346
772,23.997264218809045
812,25.964572433886727
2,1, 7,21, 0,19, 0.00,60.00,SummerDesignDay
8,22.82933132300861
11,22202424790.543935
252,12793779311.189438
2,1, 7,21, 0,19, 0.00,60.00,SummerDesignDay
692,23.971037557952344
732,23.99751416429088
772,23.99737219529508
812,25.964859449667427
2,1, 7,21, 0,20, 0.00,60.00,SummerDesignDay
8,22.548645905899027
11,21049255622.788663
252,12827633190.161774
2,1, 7,21, 0,20, 0.00,60.00,SummerDesignDay
692,23.97115403426987
732,23.997661884671435
772,23.997525601955056
812,25.96506360720354
2,1, 7,21, 0,21, 0.00,60.00,SummerDesignDay
8,22.312987690310977
11,21442673003.243318
252,12469205942.99892
2,1, 7,21, 0,21, 0.00,60.00,SummerDesignDay
692,23.971023642873303
732,23.99769266448525
772,23.997553759614456
812,25.964928106836088
2,1, 7,21, 0,22, 0.00,60.00,SummerDesignDay
8,21.475995587251039
11,20794709277.1049
252,12792852836.528738
2,1, 7,21, 0,22, 0.00,60.00,SummerDesignDay
692,23.970745786730327
732,23.997563083714409
772,23.99743395722141
812,25.964620228618136
2,1, 7,21, 0,23, 0.00,60.00,SummerDesignDay
8,20.824995071347869
11,19764158316.83106
252,12424564355.445488
2,1, 7,21, 0,23, 0.00,60.00,SummerDesignDay
692,23.98513773278211
732,25.504846111964363
772,25.37112378693487
812,25.979320706472323
2,1, 7,21, 0,24, 0.00,60.00,SummerDesignDay
8,20.173995840857065
11,19033316763.418138
252,11890422401.055802
2,1, 7,21, 0,24, 0.00,60.00,SummerDesignDay
692,23.98224860836077
732,25.968414848759914
772,25.829580328239968
812,25.97681639530621
3,1, 7,21, 0,SummerDesignDay
693,61.57141410015418,61.13620333697164,16,60,61.97995859653636, 2,60
733,47.15821203079978,41.9026685229217, 5,60,50.400640714892947,22,60
773,47.489240364616907,42.033982305491857, 5,60,50.78840323501144,22,60
813,52.70217328087423,51.92134504548724,15,60,53.56120841303446,21,60
4,1, 7
7,22.812875000000003,18.5,21, 5,60,27.8,21,14,60
1,BUFFALO NIAGARA INTL AP ANN HTG 99.6% CONDNS DB,  42.93, -78.73,  -5.00, 215.00
2,1, 1,21, 0, 1, 0.00,60.00,WinterDesignDay
8,-16.3
11,4251252774.972283
252,38027757379.63715
2,1, 1,21, 0, 1, 0.00,60.00,WinterDesignDay
692,13.903887486960297
732,15.738700664911427
772,15.681004778874862
812,18.992374834819644
2,1, 1,21, 0, 2, 0.00,60.00,WinterDesignDay
8,-16.3
11,3866269626.032095
252,32124340900.46414
2,1, 1,21, 0, 2, 0.00,60.00,WinterDesignDay
692,13.903864080076563
732,15.600678596012
772,15.599456723317202
812,18.99219297201217
2,1, 1,21, 0, 3, 0.00,60.00,WinterDesignDay
8,-16.3
11,3866362036.5659425
252,32188226098.77064
2,1, 1,21, 0, 3, 0.00,60.00,WinterDesignDay
692,13.903842155184302
732,15.601088176195198
772,15.600131720237858
812,18.99203377691388
2,1, 1,21, 0, 4, 0.00,60.00,WinterDesignDay
8,-16.3
11,3866570469.715649
252,32329222638.904268
2,1, 1,21, 0, 4, 0.00,60.00,WinterDesignDay
692,13.903821863479413
732,15.600338892951589
772,15.597828501600973
812,18.99195462365772
2,1, 1,21, 0, 5, 0.00,60.00,WinterDesignDay
8,-16.3
11,3866746152.345165
252,32441486804.349134
2,1, 1,21, 0, 5, 0.00,60.00,WinterDesignDay
692,13.90380267776916
732,15.600661506913685
772,15.602687047634849
812,18.991906543069875
2,1, 1,21, 0, 6, 0.00,60.00,WinterDesignDay
8,-16.3
11,3870948577.6891419
252,33613863255.74775
2,1, 1,21, 0, 6, 0.00,60.00,WinterDesignDay
692,13.903784936019973
732,17.512204065068205
772,17.51106749783711
812,18.99186445662942
2,1, 1,21, 0, 7, 0.00,60.00,WinterDesignDay
8,-16.3
11,3942533357.690739
252,41093484425.11133
2,1, 1,21, 0, 7, 0.00,60.00,WinterDesignDay
692,13.903767470070843
732,19.428894007648453
772,19.406509503886704
812,18.991833341348348
2,1, 1,21, 0, 8, 0.00,60.00,WinterDesignDay
8,-16.3
11,3945607190.620426
252,41641584502.42604
2,1, 1,21, 0, 8, 0.00,60.00,WinterDesignDay
692,13.90375157364307
732,20.783670724567324
772,20.713431660578679
812,18.991810778998578
2,1, 1,21, 0, 9, 0.00,60.00,WinterDesignDay
8,-16.3
11,2963231780.57482
252,40936071490.10007
2,1, 1,21, 0, 9, 0.00,60.00,WinterDesignDay
692,13.903735987866943
732,20.996182373996058
772,20.996080642935014
812,18.991793157012375
2,1, 1,21, 0,10, 0.00,60.00,WinterDesignDay
8,-16.3
11,3957249075.707411
252,42184237690.78881
2,1, 1,21, 0,10, 0.00,60.00,WinterDesignDay
692,13.90372135242273
732,21.000134176361024
772,21.001187963987048
812,18.99177863668141
2,1, 1,21, 0,11, 0.00,60.00,WinterDesignDay
8,-16.3
11,3838097403.3503177
252,41831193680.915378
2,1, 1,21, 0,11, 0.00,60.00,WinterDesignDay
692,13.903707755750146
732,21.00221856821759
772,20.99699593386484
812,18.991766238441938
2,1, 1,21, 0,12, 0.00,60.00,WinterDesignDay
8,-16.3
11,3936056818.615297
252,41934989739.87041
2,1, 1,21, 0,12, 0.00,60.00,WinterDesignDay
692,13.903694907232988
732,21.0013819547354
772,20.996167437594325
812,18.991755938638716
2,1, 1,21, 0,13, 0.00,60.00,WinterDesignDay
8,-16.3
11,3924043377.2176935
252,41842686373.2919
2,1, 1,21, 0,13, 0.00,60.00,WinterDesignDay
692,13.903682748114172
732,20.99892751996476
772,21.003281536129579
812,18.99174750090783
2,1, 1,21, 0,14, 0.00,60.00,WinterDesignDay
8,-16.3
11,3826038097.4717447
252,41531528151.47486
2,1, 1,21, 0,14, 0.00,60.00,WinterDesignDay
692,13.903671267092053
732,21.002218246087666
772,21.00416366552152
812,18.991740626330139
2,1, 1,21, 0,15, 0.00,60.00,WinterDesignDay
8,-16.3
11,3729694822.1137206
252,41220842749.54765
2,1, 1,21, 0,15, 0.00,60.00,WinterDesignDay
692,13.903660427769792
732,21.00356844002534
772,21.002124609719798
812,18.99173500462203
2,1, 1,21, 0,16, 0.00,60.00,WinterDesignDay
8,-16.3
11,3718358145.745104
252,41167880347.62245
2,1, 1,21, 0,16, 0.00,60.00,WinterDesignDay
692,13.903650191414585
732,20.999335458740356
772,20.995322991840973
812,18.991730429009239
2,1, 1,21, 0,17, 0.00,60.00,WinterDesignDay
8,-16.3
11,3628396697.811627
252,41122824356.76898
2,1, 1,21, 0,17, 0.00,60.00,WinterDesignDay
692,13.903640523766173
732,21.002519251185757
772,21.001252338982597
812,18.991726684668348
2,1, 1,21, 0,18, 0.00,60.00,WinterDesignDay
8,-16.3
11,4703801259.559794
252,41100089069.95369
2,1, 1,21, 0,18, 0.00,60.00,WinterDesignDay
692,13.903631393459845
732,21.003163380379385
772,20.999423540230166
812,18.991723615851624
2,1, 1,21, 0,19, 0.00,60.00,WinterDesignDay
8,-16.3
11,4996331531.164997
252,41561147023.193508
2,1, 1,21, 0,19, 0.00,60.00,WinterDesignDay
692,13.90362277070825
732,21.004613897914383
772,20.99741770175382
812,18.991721102516576
2,1, 1,21, 0,20, 0.00,60.00,WinterDesignDay
8,-16.3
11,4980992140.6820349
252,41539059483.58981
2,1, 1,21, 0,20, 0.00,60.00,WinterDesignDay
692,13.903614628431395
732,21.001501597886138
772,20.999631161550889
812,18.99171906185679
2,1, 1,21, 0,21, 0.00,60.00,WinterDesignDay
8,-16.3
11,4859098547.486893
252,41521822674.71612
2,1, 1,21, 0,21, 0.00,60.00,WinterDesignDay
692,13.903606938355578
732,21.001950405934524
772,20.999996510304098
812,18.991717387920955
2,1, 1,21, 0,22, 0.00,60.00,WinterDesignDay
8,-16.3
11,4964235584.886848
252,41504348182.74651
2,1, 1,21, 0,22, 0.00,60.00,WinterDesignDay
692,13.90359967499217
732,21.001597563885736
772,20.995085328375063
812,18.99171601211198
2,1, 1,21, 0,23, 0.00,60.00,WinterDesignDay
8,-16.3
11,4646443574.679932
252,38664166496.5318
2,1, 1,21, 0,23, 0.00,60.00,WinterDesignDay
692,13.903592962118023
732,17.797902599906317
772,17.732691847922835
812,18.99757646912225
2,1, 1,21, 0,24, 0.00,60.00,WinterDesignDay
8,-16.3
11,4455176572.795351
252,38253919448.445629
2,1, 1,21, 0,24, 0.00,60.00,WinterDesignDay
692,13.903586525266532
732,16.305393911563017
772,16.186221747596979
812,18.99279068680135
3,1, 1,21, 0,WinterDesignDay
693,9.222981908868002,9.222867995945288, 1,20,9.223053975922815,24,25
733,6.608979043810495,5.888422030992442,19,60,8.266545684311755, 4,60
773,6.616084981945242,5.888585299466447,14,60,8.267875863491814, 4,60
813,6.670229205112954,6.667157111772718,23,60,6.670394483965382,22,60
4,1, 1
7,-16.300000000000009,-16.3,21, 1,60,-16.3,21, 1,60
End of Data
 Number of Records Written=         519
