Program Version,EnergyPlus, Version 9.1.0-fafb9d5652, YMD=2020.03.25 14:41
1,5,Environment Title[],Latitude[deg],Longitude[deg],Time Zone[],Elevation[m]
2,8,Day of Simulation[],Month[],Day of Month[],DST Indicator[1=yes 0=no],Hour[],StartMinute[],EndMinute[],DayType
3,5,Cumulative Day of Simulation[],Month[],Day of Month[],DST Indicator[1=yes 0=no],DayType  ! When Daily Report Variables Requested
4,2,Cumulative Days of Simulation[],Month[]  ! When Monthly Report Variables Requested
5,1,Cumulative Days of Simulation[] ! When Run Period Report Variables Requested
6,1,Calendar Year of Simulation[] ! When Annual Report Variables Requested
7,9,Environment,Site Outdoor Air Drybulb Temperature [C] !Monthly [Value,Min,Day,Hour,Minute,Max,Day,Hour,Minute]
8,1,Environment,Site Outdoor Air Wetbulb Temperature [C] !TimeStep
692,1,BUILDING STORY 1 THERMALZONE,Zone Air Temperature [C] !Hourly
693,7,BUILDING STORY 1 THERMALZONE,Zone Air Relative Humidity [%] !Daily [Value,Min,Hour,Minute,Max,Hour,Minute]
732,1,BUILDING STORY 2 THERMALZONE,Zone Air Temperature [C] !Hourly
733,7,BUILDING STORY 2 THERMALZONE,Zone Air Relative Humidity [%] !Daily [Value,Min,Hour,Minute,Max,Hour,Minute]
772,1,BUILDING STORY 3 THERMALZONE,Zone Air Temperature [C] !Hourly
773,7,BUILDING STORY 3 THERMALZONE,Zone Air Relative Humidity [%] !Daily [Value,Min,Hour,Minute,Max,Hour,Minute]
812,1,BUILDING STORY 4 THERMALZONE,Zone Air Temperature [C] !Hourly
813,7,BUILDING STORY 4 THERMALZONE,Zone Air Relative Humidity [%] !Daily [Value,Min,Hour,Minute,Max,Hour,Minute]
11,1,Electricity:Facility [J] !TimeStep
252,1,Gas:Facility [J] !TimeStep
End of Data Dictionary
1,BUFFALO NIAGARA INTL AP ANN CLG .4% CONDNS DB=>MWB 1,  42.93, -78.73,  -5.00, 215.00
2,1, 7,21, 0, 1, 0.00,60.00,SummerDesignDay
8,19.36840579326866
11,15757611527.87423
252,11483093431.488966
2,1, 7,21, 0, 1, 0.00,60.00,SummerDesignDay
692,24.339400680676513
732,25.98133789367702
772,25.958305241691549
812,25.939579793682655
2,1, 7,21, 0, 2, 0.00,60.00,SummerDesignDay
8,19.25226217922265
11,15086117196.913575
252,6642334253.593693
2,1, 7,21, 0, 2, 0.00,60.00,SummerDesignDay
692,24.276787291394844
732,26.62194841064526
772,26.013970389802709
812,25.99087567355695
2,1, 7,21, 0, 3, 0.00,60.00,SummerDesignDay
8,19.164819553782637
11,15111796669.688452
252,6457276570.74201
2,1, 7,21, 0, 3, 0.00,60.00,SummerDesignDay
692,24.302460066272933
732,26.64971349245299
772,26.061801790850468
812,26.034671397320058
2,1, 7,21, 0, 4, 0.00,60.00,SummerDesignDay
8,19.0770792448193
11,15098677314.01585
252,6457276570.74201
2,1, 7,21, 0, 4, 0.00,60.00,SummerDesignDay
692,24.307467831202474
732,26.652599543870087
772,26.113436854783829
812,26.082103665934917
2,1, 7,21, 0, 5, 0.00,60.00,SummerDesignDay
8,19.018427637799467
11,15085057239.185776
252,6457276570.74201
2,1, 7,21, 0, 5, 0.00,60.00,SummerDesignDay
692,24.30568535933001
732,26.671435828554
772,26.161277238221648
812,26.126337369428599
2,1, 7,21, 0, 6, 0.00,60.00,SummerDesignDay
8,19.0770792448193
11,14734317389.677344
252,6457276570.74201
2,1, 7,21, 0, 6, 0.00,60.00,SummerDesignDay
692,24.3346367059642
732,26.713841014213949
772,25.72347584925567
812,25.720910452529425
2,1, 7,21, 0, 7, 0.00,60.00,SummerDesignDay
8,19.281346189070228
11,15603633220.323084
252,11408130246.023997
2,1, 7,21, 0, 7, 0.00,60.00,SummerDesignDay
692,24.038396893495717
732,26.09934479550129
772,25.036564936928337
812,25.03595491717644
2,1, 7,21, 0, 8, 0.00,60.00,SummerDesignDay
8,19.770887505670989
11,17544475012.14149
252,12827009682.101288
2,1, 7,21, 0, 8, 0.00,60.00,SummerDesignDay
692,23.99420712880696
732,26.002552535762598
772,24.07440347668856
812,24.07416857923998
2,1, 7,21, 0, 9, 0.00,60.00,SummerDesignDay
8,20.30732185289352
11,17515691840.756364
252,12792977088.099526
2,1, 7,21, 0, 9, 0.00,60.00,SummerDesignDay
692,23.983270321534996
732,25.98206229149162
772,23.99835205249822
812,23.998218975918197
2,1, 7,21, 0,10, 0.00,60.00,SummerDesignDay
8,20.778037156782458
11,17546597831.22841
252,12424285935.233307
2,1, 7,21, 0,10, 0.00,60.00,SummerDesignDay
692,23.98157383723762
732,25.979791912204129
772,23.99756549791804
812,23.997415047775286
2,1, 7,21, 0,11, 0.00,60.00,SummerDesignDay
8,21.186337137460165
11,17609728287.703985
252,12377341286.610096
2,1, 7,21, 0,11, 0.00,60.00,SummerDesignDay
692,23.980911212554365
732,25.978873508691018
772,23.997326211534543
812,23.997171468405094
2,1, 7,21, 0,12, 0.00,60.00,SummerDesignDay
8,21.45495938709981
11,17811301056.152437
252,12424916208.876717
2,1, 7,21, 0,12, 0.00,60.00,SummerDesignDay
692,23.98065628327923
732,25.978533784044889
772,23.997218018220907
812,23.997067544082989
2,1, 7,21, 0,13, 0.00,60.00,SummerDesignDay
8,21.667839996742449
11,17824727289.99619
252,12288690520.025187
2,1, 7,21, 0,13, 0.00,60.00,SummerDesignDay
692,23.98050143559269
732,25.978372256460074
772,23.99718942097596
812,23.997044762158106
2,1, 7,21, 0,14, 0.00,60.00,SummerDesignDay
8,21.799990419629109
11,17812852576.920148
252,12107764508.031407
2,1, 7,21, 0,14, 0.00,60.00,SummerDesignDay
692,23.980367135194937
732,25.978246661283113
772,23.997188919880178
812,23.997044785678747
2,1, 7,21, 0,15, 0.00,60.00,SummerDesignDay
8,21.799990419629109
11,17688341919.76784
252,11955090513.196642
2,1, 7,21, 0,15, 0.00,60.00,SummerDesignDay
692,23.980327264667215
732,25.97819159279183
772,23.997215139809457
812,23.997069011216529
2,1, 7,21, 0,16, 0.00,60.00,SummerDesignDay
8,21.641326796728476
11,17597926255.3955
252,11954876606.583029
2,1, 7,21, 0,16, 0.00,60.00,SummerDesignDay
692,23.980375532201959
732,25.978204538336465
772,23.997291678257004
812,23.997145287984144
2,1, 7,21, 0,17, 0.00,60.00,SummerDesignDay
8,21.42822317147698
11,17481757311.918096
252,11954659134.828164
2,1, 7,21, 0,17, 0.00,60.00,SummerDesignDay
692,23.980442919616509
732,25.97823697671282
772,23.997384222420988
812,23.99723842359133
2,1, 7,21, 0,18, 0.00,60.00,SummerDesignDay
8,21.15931786227956
11,17463262976.99593
252,12377321121.683838
2,1, 7,21, 0,18, 0.00,60.00,SummerDesignDay
692,23.980517397665019
732,25.978282581302194
772,23.997465572893053
812,23.99732034424483
2,1, 7,21, 0,19, 0.00,60.00,SummerDesignDay
8,20.750583661392644
11,17457150273.936964
252,12793776724.531264
2,1, 7,21, 0,19, 0.00,60.00,SummerDesignDay
692,23.98061640428509
732,25.97836185187424
772,23.9975624946654
812,23.99742327327483
2,1, 7,21, 0,20, 0.00,60.00,SummerDesignDay
8,20.446661088459409
11,17268843048.181306
252,12827630770.539887
2,1, 7,21, 0,20, 0.00,60.00,SummerDesignDay
692,23.98068386417067
732,25.978449122230008
772,23.997647862366248
812,23.997525580926497
2,1, 7,21, 0,21, 0.00,60.00,SummerDesignDay
8,20.19530361990708
11,17587551461.751813
252,12469202654.847716
2,1, 7,21, 0,21, 0.00,60.00,SummerDesignDay
692,23.98055092585001
732,25.978388113003004
772,23.99762342069046
812,23.997507683436788
2,1, 7,21, 0,22, 0.00,60.00,SummerDesignDay
8,19.941485234887624
11,17553131316.945917
252,12792849882.195397
2,1, 7,21, 0,22, 0.00,60.00,SummerDesignDay
692,23.980383867735929
732,25.978278565365178
772,23.997541482563837
812,23.997424629402379
2,1, 7,21, 0,23, 0.00,60.00,SummerDesignDay
8,19.7423381019073
11,16727888264.711915
252,12424565600.95412
2,1, 7,21, 0,23, 0.00,60.00,SummerDesignDay
692,23.988417834047178
732,25.9859402718903
772,25.41192022577562
812,25.408962576908214
2,1, 7,21, 0,24, 0.00,60.00,SummerDesignDay
8,19.54165603023991
11,16284223654.951947
252,11890561208.397847
2,1, 7,21, 0,24, 0.00,60.00,SummerDesignDay
692,23.984681375421589
732,25.982289778422748
772,25.700390349527568
812,25.690340610142884
3,1, 7,21, 0,SummerDesignDay
693,61.54173403902259,60.884840086956,16,60,62.86986904424497, 2,60
733,53.653114948791,53.27533675876879, 9,60,54.437101383689917, 7,20
773,50.29990075929232,48.82151461353006,23,36,52.4052529265295,22,60
813,50.65381298936877,49.24050508440144,23,36,52.708016419737948, 8,20
4,1, 7
7,25.312875000000003,21.0,21, 5,60,30.3,21,14,60
1,BUFFALO NIAGARA INTL AP ANN CLG .4% CONDNS WB=>MDB 1,  42.93, -78.73,  -5.00, 215.00
2,1, 7,21, 0, 1, 0.00,60.00,SummerDesignDay
8,19.615996954992807
11,15824358569.174262
252,11483640371.057793
2,1, 7,21, 0, 1, 0.00,60.00,SummerDesignDay
692,24.27504861127254
732,25.97932557822346
772,25.59401590282716
812,25.557284213121524
2,1, 7,21, 0, 2, 0.00,60.00,SummerDesignDay
8,19.243988037109376
11,15086991804.837454
252,6642004907.88633
2,1, 7,21, 0, 2, 0.00,60.00,SummerDesignDay
692,24.27965569329015
732,26.603626746360847
772,25.66239748935193
812,25.619637183864655
2,1, 7,21, 0, 3, 0.00,60.00,SummerDesignDay
8,18.96499632356402
11,15070719914.299494
252,6457276570.74201
2,1, 7,21, 0, 3, 0.00,60.00,SummerDesignDay
692,24.28072171487213
732,26.628932619259879
772,25.70498890964243
812,25.656566540980326
2,1, 7,21, 0, 4, 0.00,60.00,SummerDesignDay
8,18.685989379882814
11,15015707464.112067
252,6457276570.74201
2,1, 7,21, 0, 4, 0.00,60.00,SummerDesignDay
692,24.290586182839037
732,26.63107342644744
772,25.738296865885105
812,25.684516507901248
2,1, 7,21, 0, 5, 0.00,60.00,SummerDesignDay
8,18.49999810986028
11,14974475095.706572
252,6457276570.74201
2,1, 7,21, 0, 5, 0.00,60.00,SummerDesignDay
692,24.290391831879849
732,26.649188394498233
772,25.76708438487086
812,25.708953465172418
2,1, 7,21, 0, 6, 0.00,60.00,SummerDesignDay
8,18.685989379882814
11,14575215741.331078
252,6457276570.74201
2,1, 7,21, 0, 6, 0.00,60.00,SummerDesignDay
692,24.316305946477788
732,26.689942399262138
772,25.704112930939645
812,25.698845349283894
2,1, 7,21, 0, 7, 0.00,60.00,SummerDesignDay
8,19.336990356445314
11,15451380016.608569
252,11408674040.025727
2,1, 7,21, 0, 7, 0.00,60.00,SummerDesignDay
692,24.06280942669141
732,26.15307699587695
772,25.053253133511185
812,25.051659717850585
2,1, 7,21, 0, 8, 0.00,60.00,SummerDesignDay
8,20.917992548817627
11,17788083185.984006
252,12827009976.965577
2,1, 7,21, 0, 8, 0.00,60.00,SummerDesignDay
692,23.997197766923536
732,26.01011720059568
772,24.07121100616817
812,24.07045357223748
2,1, 7,21, 0, 9, 0.00,60.00,SummerDesignDay
8,22.420023807696297
11,18391385722.32653
252,12792979605.9356
2,1, 7,21, 0, 9, 0.00,60.00,SummerDesignDay
692,23.98350803985565
732,25.982652545411964
772,23.997293722834628
812,23.99706044832578
2,1, 7,21, 0,10, 0.00,60.00,SummerDesignDay
8,22.854695006230427
11,18588213131.917776
252,12424288979.874218
2,1, 7,21, 0,10, 0.00,60.00,SummerDesignDay
692,23.981615088741177
732,25.97992852318173
772,23.996296715595148
812,23.996019066472397
2,1, 7,21, 0,11, 0.00,60.00,SummerDesignDay
8,23.232104587122938
11,18834475349.711767
252,12377344449.782536
2,1, 7,21, 0,11, 0.00,60.00,SummerDesignDay
692,23.98088733712451
732,25.978839550384959
772,23.995869530448265
812,23.995576316246365
2,1, 7,21, 0,12, 0.00,60.00,SummerDesignDay
8,23.480593542408348
11,19165034413.598436
252,12424919122.50293
2,1, 7,21, 0,12, 0.00,60.00,SummerDesignDay
692,23.980613928189258
732,25.97843015888667
772,23.99572501816525
812,23.99543833659315
2,1, 7,21, 0,13, 0.00,60.00,SummerDesignDay
8,23.677626430315248
11,19232014808.295057
252,12287139944.155825
2,1, 7,21, 0,13, 0.00,60.00,SummerDesignDay
692,23.98045116952764
732,25.978239922077735
772,23.995710435348309
812,23.995431295513897
2,1, 7,21, 0,14, 0.00,60.00,SummerDesignDay
8,23.799986320868798
11,19153528784.565549
252,12109349270.624535
2,1, 7,21, 0,14, 0.00,60.00,SummerDesignDay
692,23.98031429764626
732,25.978103626880583
772,23.99571779003242
812,23.995437856335664
2,1, 7,21, 0,15, 0.00,60.00,SummerDesignDay
8,23.799986320868798
11,19016638413.996747
252,11955094664.293232
2,1, 7,21, 0,15, 0.00,60.00,SummerDesignDay
692,23.980277907800966
732,25.97804624620661
772,23.995759827162254
812,23.99547752721181
2,1, 7,21, 0,16, 0.00,60.00,SummerDesignDay
8,23.653081835774505
11,18990450250.939985
252,11954880826.616095
2,1, 7,21, 0,16, 0.00,60.00,SummerDesignDay
692,23.980331734888755
732,25.97805978543818
772,23.995861452413754
812,23.995581224505874
2,1, 7,21, 0,17, 0.00,60.00,SummerDesignDay
8,23.4558543827806
11,18972527450.837675
252,11954663425.439183
2,1, 7,21, 0,17, 0.00,60.00,SummerDesignDay
692,23.98040338820907
732,25.978093045394308
772,23.995973564121586
812,23.995695839334798
2,1, 7,21, 0,18, 0.00,60.00,SummerDesignDay
8,23.207119318496696
11,18977465761.99281
252,12377324664.50093
2,1, 7,21, 0,18, 0.00,60.00,SummerDesignDay
692,23.9804808546226
732,25.978139345141068
772,23.99607359601489
812,23.99579866521778
2,1, 7,21, 0,19, 0.00,60.00,SummerDesignDay
8,22.82933132300861
11,18520026517.912794
252,12793779311.3567
2,1, 7,21, 0,19, 0.00,60.00,SummerDesignDay
692,23.980583639903455
732,25.978219703852799
772,23.996200390322568
812,23.99593721867832
2,1, 7,21, 0,20, 0.00,60.00,SummerDesignDay
8,22.548645905899027
11,18220425306.460668
252,12827633190.318234
2,1, 7,21, 0,20, 0.00,60.00,SummerDesignDay
692,23.98064799439192
732,25.97830560325021
772,23.99630410393537
812,23.996067690308608
2,1, 7,21, 0,21, 0.00,60.00,SummerDesignDay
8,22.312987690310977
11,18442163129.499425
252,12469205943.211548
2,1, 7,21, 0,21, 0.00,60.00,SummerDesignDay
692,23.98050691236285
732,25.97824105983906
772,23.996246012848986
812,23.996014154973968
2,1, 7,21, 0,22, 0.00,60.00,SummerDesignDay
8,21.475995587251039
11,18041381849.622785
252,12792852836.719777
2,1, 7,21, 0,22, 0.00,60.00,SummerDesignDay
692,23.980278508756404
732,25.978095712587608
772,23.996128408783446
812,23.99589402620394
2,1, 7,21, 0,23, 0.00,60.00,SummerDesignDay
8,20.824995071347869
11,17037676530.026326
252,12424859242.781424
2,1, 7,21, 0,23, 0.00,60.00,SummerDesignDay
692,23.98687183558659
732,25.98431754886888
772,25.2226865549159
812,25.2064434611052
2,1, 7,21, 0,24, 0.00,60.00,SummerDesignDay
8,20.173995840857065
11,16436807356.964056
252,11890556316.684449
2,1, 7,21, 0,24, 0.00,60.00,SummerDesignDay
692,23.98422686624059
732,25.98180555872991
772,25.44167660155062
812,25.415067105157566
3,1, 7,21, 0,SummerDesignDay
693,61.911745053576947,61.335238224526957,16,60,62.834388751800009, 3,60
733,53.92020230400547,53.59900462172743, 8,60,54.487749372531627, 3,60
773,53.71531454431997,51.12834355683551, 6,60,56.27854006451305,22,60
813,54.34886168461909,51.77045599374146, 6,60,56.917986168759608,22,60
4,1, 7
7,22.812875000000003,18.5,21, 5,60,27.8,21,14,60
1,BUFFALO NIAGARA INTL AP ANN HTG 99.6% CONDNS DB 1,  42.93, -78.73,  -5.00, 215.00
2,1, 1,21, 0, 1, 0.00,60.00,WinterDesignDay
8,-16.3
11,3538601749.5707066
252,29079133816.150934
2,1, 1,21, 0, 1, 0.00,60.00,WinterDesignDay
692,18.21039634548704
732,19.004331368715659
772,15.598846542070025
812,15.599697745526023
2,1, 1,21, 0, 2, 0.00,60.00,WinterDesignDay
8,-16.3
11,3153898363.316952
252,23119554513.021009
2,1, 1,21, 0, 2, 0.00,60.00,WinterDesignDay
692,18.210289900957535
732,19.00413656856156
772,15.599922821130717
812,15.599650387575464
2,1, 1,21, 0, 3, 0.00,60.00,WinterDesignDay
8,-16.3
11,3154967629.7959067
252,23207273732.022245
2,1, 1,21, 0, 3, 0.00,60.00,WinterDesignDay
692,18.210187874891994
732,19.00398152942227
772,15.598674493543456
812,15.598298749248125
2,1, 1,21, 0, 4, 0.00,60.00,WinterDesignDay
8,-16.3
11,3155549022.5711019
252,23370089525.600057
2,1, 1,21, 0, 4, 0.00,60.00,WinterDesignDay
692,18.21008891628206
732,19.00388527999687
772,15.598825376123994
812,15.59993712413468
2,1, 1,21, 0, 5, 0.00,60.00,WinterDesignDay
8,-16.3
11,3156261078.7944877
252,23510630210.217184
2,1, 1,21, 0, 5, 0.00,60.00,WinterDesignDay
692,18.209993072261388
732,19.003792645000606
772,15.600010559525844
812,15.598529986759966
2,1, 1,21, 0, 6, 0.00,60.00,WinterDesignDay
8,-16.3
11,3182216570.4670674
252,25747159765.145074
2,1, 1,21, 0, 6, 0.00,60.00,WinterDesignDay
692,18.209896356161708
732,19.0036758541984
772,17.503192072158524
812,17.48328796490471
2,1, 1,21, 0, 7, 0.00,60.00,WinterDesignDay
8,-16.3
11,3486890173.900227
252,33333563345.913476
2,1, 1,21, 0, 7, 0.00,60.00,WinterDesignDay
692,18.209803463301684
732,19.003577859409309
772,18.99424794137166
812,18.74324436527516
2,1, 1,21, 0, 8, 0.00,60.00,WinterDesignDay
8,-16.3
11,3486141011.9262788
252,33261494867.604005
2,1, 1,21, 0, 8, 0.00,60.00,WinterDesignDay
692,18.209726513215139
732,19.00350222516361
772,19.35534608344434
812,19.071525955413038
2,1, 1,21, 0, 9, 0.00,60.00,WinterDesignDay
8,-16.3
11,2829826078.617402
252,33189793233.420526
2,1, 1,21, 0, 9, 0.00,60.00,WinterDesignDay
692,18.20964038242462
732,19.003414573918915
772,19.645843175913094
812,19.32880053789179
2,1, 1,21, 0,10, 0.00,60.00,WinterDesignDay
8,-16.3
11,3824739115.1448018
252,34590620552.43823
2,1, 1,21, 0,10, 0.00,60.00,WinterDesignDay
692,18.20955789331085
732,19.003329819594027
772,19.82507174656845
812,19.494953592698964
2,1, 1,21, 0,11, 0.00,60.00,WinterDesignDay
8,-16.3
11,3706355168.5460188
252,34381750153.20978
2,1, 1,21, 0,11, 0.00,60.00,WinterDesignDay
692,18.20948005523773
732,19.003245587327109
772,19.928197056565347
812,19.58995275089391
2,1, 1,21, 0,12, 0.00,60.00,WinterDesignDay
8,-16.3
11,3805192592.452257
252,34604631387.41438
2,1, 1,21, 0,12, 0.00,60.00,WinterDesignDay
692,18.209404623774736
732,19.00316166803022
772,20.02801417724226
812,19.674481667895014
2,1, 1,21, 0,13, 0.00,60.00,WinterDesignDay
8,-16.3
11,3793341765.132127
252,34580328347.42062
2,1, 1,21, 0,13, 0.00,60.00,WinterDesignDay
692,18.20933136360319
732,19.00307895135587
772,20.12050219748266
812,19.74818846164068
2,1, 1,21, 0,14, 0.00,60.00,WinterDesignDay
8,-16.3
11,3695674689.7410519
252,34331463217.62531
2,1, 1,21, 0,14, 0.00,60.00,WinterDesignDay
692,18.20926049355815
732,19.00299774455979
772,20.20067291658871
812,19.832692186066937
2,1, 1,21, 0,15, 0.00,60.00,WinterDesignDay
8,-16.3
11,3599497697.2450459
252,34067838729.95584
2,1, 1,21, 0,15, 0.00,60.00,WinterDesignDay
692,18.209191987321775
732,19.002918060813497
772,20.29070513057424
812,19.902340495276954
2,1, 1,21, 0,16, 0.00,60.00,WinterDesignDay
8,-16.3
11,3588379431.8311479
252,34060649155.57587
2,1, 1,21, 0,16, 0.00,60.00,WinterDesignDay
692,18.209125737962116
732,19.002839879224607
772,20.373518986388946
812,19.98149428223647
2,1, 1,21, 0,17, 0.00,60.00,WinterDesignDay
8,-16.3
11,3498340660.3035037
252,34017887673.114545
2,1, 1,21, 0,17, 0.00,60.00,WinterDesignDay
692,18.20906166269431
732,19.002763178804217
772,20.445051466171294
812,20.04636033967774
2,1, 1,21, 0,18, 0.00,60.00,WinterDesignDay
8,-16.3
11,4252510843.4951755
252,34036202657.56398
2,1, 1,21, 0,18, 0.00,60.00,WinterDesignDay
692,18.20899982871759
732,19.002688025656778
772,20.527398686166366
812,20.120734409362738
2,1, 1,21, 0,19, 0.00,60.00,WinterDesignDay
8,-16.3
11,4544894634.212264
252,34492407140.93163
2,1, 1,21, 0,19, 0.00,60.00,WinterDesignDay
692,18.208940007949879
732,19.002614299017784
772,20.5962575401704
812,20.180653813903946
2,1, 1,21, 0,20, 0.00,60.00,WinterDesignDay
8,-16.3
11,4529749109.748395
252,34497582735.136539
2,1, 1,21, 0,20, 0.00,60.00,WinterDesignDay
692,18.208882083274277
732,19.002541939653974
772,20.673978342544875
812,20.251346053608029
2,1, 1,21, 0,21, 0.00,60.00,WinterDesignDay
8,-16.3
11,4407741418.971955
252,34467926285.393978
2,1, 1,21, 0,21, 0.00,60.00,WinterDesignDay
692,18.208826038379095
732,19.00247094325198
772,20.738338022433159
812,20.307320229530434
2,1, 1,21, 0,22, 0.00,60.00,WinterDesignDay
8,-16.3
11,4513084602.398483
252,34474044888.96091
2,1, 1,21, 0,22, 0.00,60.00,WinterDesignDay
692,18.208771830332095
732,19.002401293602039
772,20.81185200943011
812,20.374386260524586
2,1, 1,21, 0,23, 0.00,60.00,WinterDesignDay
8,-16.3
11,4125800574.081417
252,28170861782.893327
2,1, 1,21, 0,23, 0.00,60.00,WinterDesignDay
692,18.208716113173979
732,19.002313267601477
772,16.481061387962204
812,16.11635879581728
2,1, 1,21, 0,24, 0.00,60.00,WinterDesignDay
8,-16.3
11,3936963602.2931859
252,28952649123.9032
2,1, 1,21, 0,24, 0.00,60.00,WinterDesignDay
692,18.208668080381984
732,19.002254734284266
772,15.627138859462134
812,15.607787532633866
3,1, 1,21, 0,WinterDesignDay
693,7.005287733738288,7.004861100131035, 1,60,7.005627311147164,24,60
733,6.665629435144411,6.665143479557524, 1,60,6.66601488486116,24,60
773,6.835682655231541,5.958657481820901,22,60,8.267427558191323, 3,60
813,6.939358436160439,6.1215780779251889,22,60,8.267626689309282, 3,60
4,1, 1
7,-16.300000000000009,-16.3,21, 1,60,-16.3,21, 1,60
End of Data
 Number of Records Written=         519
