Program Version,EnergyPlus, Version 9.1.0-fafb9d5652, YMD=2020.03.24 18:14
1,5,Environment Title[],Latitude[deg],Longitude[deg],Time Zone[],Elevation[m]
2,8,Day of Simulation[],Month[],Day of Month[],DST Indicator[1=yes 0=no],Hour[],StartMinute[],EndMinute[],DayType
3,5,Cumulative Day of Simulation[],Month[],Day of Month[],DST Indicator[1=yes 0=no],DayType  ! When Daily Report Variables Requested
4,2,Cumulative Days of Simulation[],Month[]  ! When Monthly Report Variables Requested
5,1,Cumulative Days of Simulation[] ! When Run Period Report Variables Requested
6,1,Calendar Year of Simulation[] ! When Annual Report Variables Requested
699,1,BUILDING STORY 1 THERMALZONE FULLSERVICERESTAURANT DINING PEOPLE 1,Zone Thermal Comfort Fanger Model PMV [] !TimeStep
700,1,BUILDING STORY 1 THERMALZONE FULLSERVICERESTAURANT DINING PEOPLE 1,Zone Thermal Comfort Fanger Model PPD [%] !TimeStep
701,1,BUILDING STORY 1 THERMALZONE FULLSERVICERESTAURANT KITCHEN PEOPLE 1,Zone Thermal Comfort Fanger Model PMV [] !TimeStep
702,1,BUILDING STORY 1 THERMALZONE FULLSERVICERESTAURANT KITCHEN PEOPLE 1,Zone Thermal Comfort Fanger Model PPD [%] !TimeStep
703,1,BUILDING STORY 1 THERMALZONE,Zone Thermal Comfort ASHRAE 55 Simple Model Summer Clothes Not Comfortable Time [hr] !TimeStep
704,1,BUILDING STORY 1 THERMALZONE,Zone Thermal Comfort ASHRAE 55 Simple Model Winter Clothes Not Comfortable Time [hr] !TimeStep
705,1,BUILDING STORY 1 THERMALZONE,Zone Thermal Comfort ASHRAE 55 Simple Model Summer or Winter Clothes Not Comfortable Time [hr] !TimeStep
859,1,Heating:Electricity [J] !TimeStep
885,1,Heating:Gas [J] !TimeStep
833,1,Cooling:Electricity [J] !TimeStep
46,1,InteriorLights:Electricity [J] !TimeStep
744,1,ExteriorLights:Electricity [J] !TimeStep
84,1,InteriorEquipment:Electricity [J] !TimeStep
158,1,InteriorEquipment:Gas [J] !TimeStep
719,1,Fans:Electricity [J] !TimeStep
952,1,Pumps:Electricity [J] !TimeStep
256,1,WaterSystems:Electricity [J] !TimeStep
406,1,WaterSystems:Gas [J] !TimeStep
307,1,WaterSystems:Water [m3] !TimeStep
10,1,Electricity:Facility [J] !TimeStep
122,1,Gas:Facility [J] !TimeStep
283,1,Water:Facility [m3] !TimeStep
End of Data Dictionary
1,RUN PERIOD 1,  42.93, -78.73,  -5.00, 215.00
2,1, 6, 1, 1, 1, 0.00,15.00,Saturday
699,0.7707981834517044
700,17.517987776000824
701,0.7707981834517044
702,17.517987776000824
703,0.0
704,0.0
705,0.0
10,15180907.121907473
46,2942321.268806786
84,5870678.783100687
122,6605207.9556338
158,6605207.9556338
256,0.0
283,0.0
307,0.0
406,0.0
719,0.0
744,6367907.069999999
833,0.0
859,0.0
885,0.0
952,0.0
2,1, 6, 1, 1, 1,15.00,30.00,Saturday
699,0.7698228744792363
700,17.48604429379094
701,0.7698228744792363
702,17.48604429379094
703,0.0
704,0.0
705,0.0
10,15180907.121907473
46,2942321.268806786
84,5870678.783100687
122,6605207.9556338
158,6605207.9556338
256,0.0
283,0.0
307,0.0
406,0.0
719,0.0
744,6367907.069999999
833,0.0
859,0.0
885,0.0
952,0.0
2,1, 6, 1, 1, 1,30.00,45.00,Saturday
699,0.759000026215076
700,17.134297661033075
701,0.759000026215076
702,17.134297661033075
703,0.0
704,0.0
705,0.0
10,15367194.396607954
46,2942321.268806786
84,5870678.783100687
122,6605207.9556338
158,6605207.9556338
256,186287.2747004806
283,0.0
307,0.0
406,0.0
719,0.0
744,6367907.069999999
833,0.0
859,0.0
885,0.0
952,0.0
2,1, 6, 1, 1, 1,45.00,60.00,Saturday
699,0.7490350378166846
700,16.81485974953395
701,0.7490350378166846
702,16.81485974953395
703,0.0
704,0.0
705,0.0
10,15180907.121907473
46,2942321.268806786
84,5870678.783100687
122,6605207.9556338
158,6605207.9556338
256,0.0
283,0.0
307,0.0
406,0.0
719,0.0
744,6367907.069999999
833,0.0
859,0.0
885,0.0
952,0.0
2,1, 6, 1, 1, 2, 0.00,15.00,Saturday
699,0.7456234040178988
700,16.706473466433196
701,0.7456234040178988
702,16.706473466433196
703,0.0
704,0.0
705,0.0
10,18302517.02080847
46,2942321.268806786
84,8806018.17465103
122,9907811.933450699
158,9907811.933450699
256,186270.5073506549
283,0.0
307,0.0
406,0.0
719,0.0
744,6367907.069999999
833,0.0
859,0.0
885,0.0
952,0.0
2,1, 6, 1, 1, 2,15.00,30.00,Saturday
699,0.7519557459539287
700,16.908045702683155
701,0.7519557459539287
702,16.908045702683155
703,0.0
704,0.0
705,0.0
10,18116246.513457817
46,2942321.268806786
84,8806018.17465103
122,9907811.933450699
158,9907811.933450699
256,0.0
283,0.0
307,0.0
406,0.0
719,0.0
744,6367907.069999999
833,0.0
859,0.0
885,0.0
952,0.0
2,1, 6, 1, 1, 2,30.00,45.00,Saturday
699,0.7605386919118227
700,17.183999770153294
701,0.7605386919118227
702,17.183999770153294
703,0.0
704,0.0
705,0.0
10,18302500.218165857
46,2942321.268806786
84,8806018.17465103
122,9907811.933450699
158,9907811.933450699
256,186253.70470803869
283,0.0
307,0.0
406,0.0
719,0.0
744,6367907.069999999
833,0.0
859,0.0
885,0.0
952,0.0
2,1, 6, 1, 1, 2,45.00,60.00,Saturday
699,0.7661692660761261
700,17.366741440256946
701,0.7661692660761261
702,17.366741440256946
703,0.0
704,0.0
705,0.0
10,18116246.513457817
46,2942321.268806786
84,8806018.17465103
122,9907811.933450699
158,9907811.933450699
256,0.0
283,0.0
307,0.0
406,0.0
719,0.0
744,6367907.069999999
833,0.0
859,0.0
885,0.0
952,0.0
2,1, 6, 1, 1, 3, 0.00,15.00,Saturday
699,0.7665652838563979
700,17.379645253893658
701,0.7665652838563979
702,17.379645253893658
703,0.0
704,0.0
705,0.0
10,15367143.988702495
46,2942321.268806786
84,5870678.783100687
122,6605207.9556338
158,6605207.9556338
256,186236.86679502185
283,0.0
307,0.0
406,0.0
719,0.0
744,6367907.069999999
833,0.0
859,0.0
885,0.0
952,0.0
2,1, 6, 1, 1, 3,15.00,30.00,Saturday
699,0.7588313952050675
700,17.12885668187883
701,0.7588313952050675
702,17.12885668187883
703,0.0
704,0.0
705,0.0
10,15180907.121907473
46,2942321.268806786
84,5870678.783100687
122,6605207.9556338
158,6605207.9556338
256,0.0
283,0.0
307,0.0
406,0.0
719,0.0
744,6367907.069999999
833,0.0
859,0.0
885,0.0
952,0.0
2,1, 6, 1, 1, 3,30.00,45.00,Saturday
699,0.7496711700081201
700,16.835124589242214
701,0.7496711700081201
702,16.835124589242214
703,0.0
704,0.0
705,0.0
10,15367127.11554216
46,2942321.268806786
84,5870678.783100687
122,6605207.9556338
158,6605207.9556338
256,186219.99363468708
283,0.0
307,0.0
406,0.0
719,0.0
744,6367907.069999999
833,0.0
859,0.0
885,0.0
952,0.0
2,1, 6, 1, 1, 3,45.00,60.00,Saturday
699,0.7442291900675269
700,16.662323433154485
701,0.7442291900675269
702,16.662323433154485
703,0.0
704,0.0
705,0.0
10,15180907.121907473
46,2942321.268806786
84,5870678.783100687
122,6605207.9556338
158,6605207.9556338
256,0.0
283,0.0
307,0.0
406,0.0
719,0.0
744,6367907.069999999
833,0.0
859,0.0
885,0.0
952,0.0
2,1, 6, 1, 1, 4, 0.00,15.00,Saturday
699,0.7511587224977714
700,16.88258021655153
701,0.7511587224977714
702,16.88258021655153
703,0.0
704,0.0
705,0.0
10,78692216.74182934
46,2942321.268806786
84,14676696.957751718
122,16513019.889084502
158,16513019.889084502
256,0.0
283,0.0
307,0.0
406,0.0
719,26299274.645753158
744,6367907.069999999
833,28406016.799517678
859,0.0
885,0.0
952,0.0
2,1, 6, 1, 1, 4,15.00,30.00,Saturday
699,0.5457140913462035
700,11.23328501542585
701,0.5457140913462035
702,11.23328501542585
703,0.0
704,0.0
705,0.0
10,70066641.93787146
46,2942321.268806786
84,14676696.957751718
122,16513019.889084502
158,16513019.889084502
256,186290.57828844185
283,0.0
307,0.0
406,0.0
719,26299274.645753158
744,6367907.069999999
833,19594151.417271358
859,0.0
885,0.0
952,0.0
2,1, 6, 1, 1, 4,30.00,45.00,Saturday
699,0.5001119277531074
700,10.22738281213796
701,0.5001119277531074
702,10.22738281213796
703,0.0
704,0.0
705,0.0
10,23986925.2965585
46,2942321.268806786
84,14676696.957751718
122,16513019.889084502
158,16513019.889084502
256,0.0
283,0.0
307,0.0
406,0.0
719,0.0
744,6367907.069999999
833,0.0
859,0.0
885,0.0
952,0.0
2,1, 6, 1, 1, 4,45.00,60.00,Saturday
699,0.6177727529371419
700,13.006522140369896
701,0.6177727529371419
702,13.006522140369896
703,0.0
704,0.0
705,0.0
10,73269894.95455355
46,2942321.268806786
84,14676696.957751718
122,16513019.889084502
158,16513019.889084502
256,186295.52348769396
283,0.0
307,0.0
406,0.0
719,26299274.645753158
744,6367907.069999999
833,22797399.488754207
859,0.0
885,0.0
952,0.0
2,1, 6, 1, 1, 5, 0.00,15.00,Saturday
699,0.508400149079731
700,10.403515726682784
701,0.508400149079731
702,10.403515726682784
703,0.0
704,0.0
705,0.0
10,74500378.97311579
46,2942321.268806786
84,35224072.69860412
122,39631247.733802799
158,39631247.733802799
256,0.0
283,0.0
307,0.0
406,0.0
719,26299274.645753158
744,6367907.069999999
833,3666803.2899517186
859,0.0
885,0.0
952,0.0
2,1, 6, 1, 1, 5,15.00,30.00,Saturday
699,0.7227357971474647
700,15.992260400976364
701,0.7227357971474647
702,15.992260400976364
703,0.0
704,0.0
705,0.0
10,44720587.0910189
46,2942321.268806786
84,35224072.69860412
122,39631247.733802799
158,39631247.733802799
256,186286.05360798696
283,0.0
307,0.0
406,0.0
719,0.0
744,6367907.069999999
833,0.0
859,0.0
885,0.0
952,0.0
2,1, 6, 1, 1, 5,30.00,45.00,Saturday
699,0.7852871376640224
700,17.99730437273648
701,0.7852871376640224
702,17.99730437273648
703,0.0
704,0.0
705,0.0
10,38166393.96741091
46,2942321.268806786
84,35224072.69860412
122,39631247.733802799
158,39631247.733802799
256,0.0
283,0.0
307,0.0
406,0.0
719,0.0
744,0.0
833,0.0
859,0.0
885,0.0
952,0.0
2,1, 6, 1, 1, 5,45.00,60.00,Saturday
699,0.8503723311846955
700,20.259897176458226
701,0.8503723311846955
702,20.259897176458226
703,0.0
704,0.0
705,0.0
10,38352634.17584074
46,2942321.268806786
84,35224072.69860412
122,39631247.733802799
158,39631247.733802799
256,186240.20842983249
283,0.0
307,0.0
406,0.0
719,0.0
744,0.0
833,0.0
859,0.0
885,0.0
952,0.0
2,1, 6, 1, 1, 6, 0.00,15.00,Saturday
699,0.9246080692529469
700,23.055173646544334
701,0.9246080692529469
702,23.055173646544334
703,0.25
704,0.25
705,0.25
10,110494672.75048194
46,5292430.223889428
84,38159412.09015446
122,131394294.98878366
158,42933851.7116197
256,0.0
283,0.07656277705915854
307,0.07656277705915854
406,88460443.27716396
719,26299274.645753158
744,0.0
833,40743555.79006748
859,0.0
885,0.0
952,0.0006173962129792374
2,1, 6, 1, 1, 6,15.00,30.00,Saturday
699,0.5812227881981543
700,12.078936338877526
701,0.5812227881981543
702,12.078936338877526
703,0.0
704,0.25
705,0.0
10,93755426.2158628
46,5292430.223889428
84,38159412.09015446
122,117647075.32410494
158,42933851.7116197
256,186223.32826173676
283,0.07656277705915855
307,0.07656277705915855
406,74713223.61248525
719,26299274.645753158
744,0.0
833,23818085.927186606
859,0.0
885,0.0
952,0.0006173962129792374
2,1, 6, 1, 1, 6,30.00,45.00,Saturday
699,0.524635125351184
700,10.757133949556703
701,0.524635125351184
702,10.757133949556703
703,0.0
704,0.25
705,0.0
10,43188984.94687478
46,5029572.856102919
84,38159412.09015446
122,117647786.33284241
158,42933851.7116197
256,0.0
283,0.07656277705915857
307,0.07656277705915857
406,74713934.62122272
719,0.0
744,0.0
833,0.0
859,0.0
885,0.0
952,0.0006173962129792374
2,1, 6, 1, 1, 6,45.00,60.00,Saturday
699,0.7487256923322443
700,16.805011401390176
701,0.7487256923322443
702,16.805011401390176
703,0.0
704,0.25
705,0.0
10,103870074.35355854
46,4766715.488316411
84,38159412.09015446
122,129989386.66073969
158,42933851.7116197
256,0.0
283,0.07656277705915857
307,0.07656277705915857
406,87055534.94912
719,26299274.64575316
744,0.0
833,34644672.12871711
859,0.0
885,0.0
952,0.0006173962129792374
2,1, 6, 1, 1, 7, 0.00,15.00,Saturday
699,0.555856907713295
700,11.469260971032753
701,0.555856907713295
702,11.469260971032753
703,0.0
704,0.25
705,0.0
10,87242902.0733659
46,3916398.3656781765
84,44030090.87325515
122,130298278.6707701
158,49539059.667253497
256,186293.8465618385
283,0.07656277705915855
307,0.07656277705915855
406,80759219.0035166
719,26299274.645753158
744,0.0
833,12810844.341500184
859,0.0
885,0.0
952,0.0006173962129792374
2,1, 6, 1, 1, 7,15.00,30.00,Saturday
699,0.544348649772717
700,11.201858118122715
701,0.544348649772717
702,11.201858118122715
703,0.0
704,0.25
705,0.0
10,94979150.1526698
46,3916398.3656781765
84,44030090.87325515
122,124246312.60609193
158,49539059.667253497
256,0.0
283,0.07656277705915855
307,0.07656277705915855
406,74707252.93883844
719,26299274.645753158
744,0.0
833,20733386.267365919
859,0.0
885,0.0
952,0.0006173962129792374
2,1, 6, 1, 1, 7,30.00,45.00,Saturday
699,0.5450795038258024
700,11.218669348765915
701,0.5450795038258024
702,11.218669348765915
703,0.0
704,0.25
705,0.0
10,94650169.71861911
46,3916398.3656781765
84,44030090.87325515
122,126167260.15058114
158,49539059.667253497
256,186277.09307108908
283,0.07656277705915855
307,0.07656277705915855
406,76628200.48332764
719,26299274.645753158
744,0.0
833,20218128.74024413
859,0.0
885,0.0
952,0.0006173962129792374
2,1, 6, 1, 1, 7,45.00,60.00,Saturday
699,0.5467381799725124
700,11.256908385372228
701,0.5467381799725124
702,11.256908385372228
703,0.0
704,0.25
705,0.0
10,94354705.78357488
46,3328938.61082645
84,44030090.87325515
122,140701752.58475996
158,49539059.667253497
256,0.0
283,0.07656277705915855
307,0.07656277705915855
406,91162692.91750646
719,26299274.645753158
744,0.0
833,20696401.653122728
859,0.0
885,0.0
952,0.0006173962129792374
2,1, 6, 1, 1, 8, 0.00,15.00,Saturday
699,0.5602763014295239
700,11.573474669957875
701,0.5602763014295239
702,11.573474669957875
703,0.0
704,0.25
705,0.0
10,109713438.20208349
46,6657060.136661732
84,52836109.047906178
122,134162162.69044838
158,59446871.60070419
256,186260.3042789496
283,0.07656277705915855
307,0.07656277705915855
406,74715291.08974418
719,26299274.645753158
744,0.0
833,23734734.066866079
859,0.0
885,0.0
952,0.0006173962129792374
2,1, 6, 1, 1, 8,15.00,30.00,Saturday
699,0.5617976653736715
700,11.609545906515863
701,0.5617976653736715
702,11.609545906515863
703,0.0
704,0.25
705,0.0
10,110471052.54252093
46,6657060.136661732
84,52836109.047906178
122,134148012.70489927
158,59446871.60070419
256,0.0
283,0.07656277705915855
307,0.07656277705915855
406,74701141.10419508
719,26299274.645753158
744,0.0
833,24678608.71158245
859,0.0
885,0.0
952,0.0006173962129792374
2,1, 6, 1, 1, 8,30.00,45.00,Saturday
699,0.5609540177887162
700,11.589530792569235
701,0.5609540177887162
702,11.589530792569235
703,0.0
704,0.25
705,0.0
10,109899149.07640037
46,5482284.818427308
84,52836109.047906178
122,143817902.99747563
158,59446871.60070419
256,186243.48020753859
283,0.07656277705915855
307,0.07656277705915855
406,84371031.39677142
719,26299274.645753158
744,0.0
833,25095237.083488794
859,0.0
885,0.0
952,0.0006173962129792374
2,1, 6, 1, 1, 8,45.00,60.00,Saturday
699,0.560942883277117
700,11.589266838264692
701,0.560942883277117
702,11.589266838264692
703,0.0
704,0.25
705,0.0
10,110220282.91034591
46,5482284.818427308
84,52836109.047906178
122,142871888.54019497
158,59446871.60070419
256,0.0
283,0.07656277705915855
307,0.07656277705915855
406,83425016.93949077
719,26299274.645753158
744,0.0
833,25602614.397641865
859,0.0
885,0.0
952,0.0006173962129792374
2,1, 6, 1, 1, 9, 0.00,15.00,Saturday
699,0.5643791562553415
700,11.670982209382914
701,0.5643791562553415
702,11.670982209382914
703,0.0
704,0.25
705,0.0
10,132889694.88728187
46,5482284.818427308
84,61642127.22255721
122,165670786.6213861
158,69354683.53415489
256,14467465.123923552
283,0.2552092568638618
307,0.2552092568638618
406,96316103.0872312
719,26299274.645753158
744,0.0
833,24998543.075872274
859,0.0
885,0.0
952,0.0007483712228625488
2,1, 6, 1, 1, 9,15.00,30.00,Saturday
699,0.5645645426729109
700,11.67540530102211
701,0.5645645426729109
702,11.67540530102211
703,0.0
704,0.25
705,0.0
10,133325618.96426687
46,5482284.818427308
84,61642127.22255721
122,165670313.7980454
158,69354683.53415489
256,14553528.617438613
283,0.2552092568638618
307,0.2552092568638618
406,96315630.26389052
719,26299274.645753158
744,0.0
833,25348403.659342223
859,0.0
885,0.0
952,0.0007483712228625488
2,1, 6, 1, 1, 9,30.00,45.00,Saturday
699,0.5639300901793165
700,11.660274224316453
701,0.5639300901793165
702,11.660274224316453
703,0.0
704,0.25
705,0.0
10,133259472.85358432
46,5482284.818427308
84,61642127.22255721
122,165669836.51388533
158,69354683.53415489
256,14333529.315094289
283,0.2552092568638618
307,0.2552092568638618
406,96315152.97973043
719,26299274.645753158
744,0.0
833,25502256.851003983
859,0.0
885,0.0
952,0.0007483712228625488
2,1, 6, 1, 1, 9,45.00,60.00,Saturday
699,0.5635675664587949
700,11.651636222920189
701,0.5635675664587949
702,11.651636222920189
703,0.0
704,0.25
705,0.0
10,133600637.12904495
46,5482284.818427308
84,61642127.22255721
122,165669354.72949357
158,69354683.53415489
256,14551817.47363773
283,0.2552092568638618
307,0.2552092568638618
406,96314671.19533867
719,26299274.645753158
744,0.0
833,25625132.96792118
859,0.0
885,0.0
952,0.0007483712228625488
2,1, 6, 1, 1,10, 0.00,15.00,Saturday
699,0.5708408749957007
700,11.82603041659911
701,0.5708408749957007
702,11.82603041659911
703,0.0
704,0.25
705,0.0
10,147738784.00317297
46,7310385.98475855
84,76318824.18030893
122,181794145.2797592
158,85867703.4232394
256,13027668.30193032
283,0.22968833117747568
307,0.22968833117747568
406,95926441.8565198
719,26299274.645753158
744,0.0
833,24782630.88969236
859,0.0
885,0.0
952,0.0007296605071649328
2,1, 6, 1, 1,10,15.00,30.00,Saturday
699,0.5694631831139315
700,11.792820944508407
701,0.5694631831139315
702,11.792820944508407
703,0.0
704,0.25
705,0.0
10,148972685.2591506
46,7310385.98475855
84,76318824.18030893
122,181795961.90692548
158,85867703.4232394
256,13015606.398301445
283,0.22968833117747568
307,0.22968833117747568
406,95928258.48368608
719,26299274.645753158
744,0.0
833,26028594.04929887
859,0.0
885,0.0
952,0.0007296605071649328
2,1, 6, 1, 1,10,30.00,45.00,Saturday
699,0.5689756330579331
700,11.781088200888036
701,0.5689756330579331
702,11.781088200888036
703,0.0
704,0.25
705,0.0
10,149869022.09166364
46,7310385.98475855
84,76318824.18030893
122,180230443.68212418
158,85867703.4232394
256,12794836.135583152
283,0.22968833117747568
307,0.22968833117747568
406,94362740.25888478
719,26299274.645753158
744,0.0
833,27145701.144530193
859,0.0
885,0.0
952,0.0007296605071649328
2,1, 6, 1, 1,10,45.00,60.00,Saturday
699,0.5682308012494506
700,11.763183959022442
701,0.5682308012494506
702,11.763183959022442
703,0.0
704,0.25
705,0.0
10,151175920.9939333
46,7310385.98475855
84,76318824.18030893
122,171429539.169286
158,85867703.4232394
256,13010617.877627071
283,0.22968833117747568
307,0.22968833117747568
406,85561835.74604663
719,26299274.645753158
744,0.0
833,28236818.30475591
859,0.0
885,0.0
952,0.0007296605071649328
2,1, 6, 1, 1,11, 0.00,15.00,Saturday
699,0.5827567813610626
700,12.116701335659286
701,0.5827567813610626
702,12.116701335659286
703,0.0
704,0.25
705,0.0
10,170259037.2848777
46,7310385.98475855
84,85124842.35495995
122,195373442.2020278
158,95775515.3566901
256,14549925.148233364
283,0.2552092568638618
307,0.2552092568638618
406,99597926.84533769
719,26299274.645753158
744,0.0
833,36974609.1504243
859,0.0
885,0.0
952,0.0007483712228625488
2,1, 6, 1, 1,11,15.00,30.00,Saturday
699,0.5870262313545794
700,12.222347460411996
701,0.5870262313545794
702,12.222347460411996
703,0.0
704,0.25
705,0.0
10,171633616.46103249
46,7310385.98475855
84,85124842.35495995
122,195382695.92093802
158,95775515.3566901
256,14331389.648306715
283,0.2552092568638618
307,0.2552092568638618
406,99607180.5642479
719,26299274.645753158
744,0.0
833,38567723.82650576
859,0.0
885,0.0
952,0.0007483712228625488
2,1, 6, 1, 1,11,30.00,45.00,Saturday
699,0.593339660285573
700,12.380020922136027
701,0.593339660285573
702,12.380020922136027
703,0.0
704,0.25
705,0.0
10,173200972.31206406
46,7310385.98475855
84,85124842.35495995
122,195392061.10732136
158,95775515.3566901
256,14551685.91195576
283,0.2552092568638618
307,0.2552092568638618
406,99616545.75063126
719,26299274.645753158
744,0.0
833,39914783.413888279
859,0.0
885,0.0
952,0.0007483712228625488
2,1, 6, 1, 1,11,45.00,60.00,Saturday
699,0.599625684298098
700,12.538728592820263
701,0.599625684298098
702,12.538728592820263
703,0.0
704,0.25
705,0.0
10,174560901.29653994
46,7310385.98475855
84,85124842.35495995
122,193845758.96834178
158,95775515.3566901
256,14554967.540938762
283,0.2552092568638618
307,0.2552092568638618
406,98070243.61165168
719,26299274.645753158
744,0.0
833,41271430.76938114
859,0.0
885,0.0
952,0.0007483712228625488
2,1, 6, 1, 1,12, 0.00,15.00,Saturday
699,0.6029688688387274
700,12.623834912507192
701,0.6029688688387274
702,12.623834912507192
703,0.0
704,0.25
705,0.0
10,169569872.31312929
46,7310385.98475855
84,79254163.57185927
122,185489196.03283227
158,89170307.4010563
256,14335928.789119237
283,0.2552092568638618
307,0.2552092568638618
406,96318888.63177595
719,26299274.645753158
744,0.0
833,42370119.32089067
859,0.0
885,0.0
952,0.0007483712228625488
2,1, 6, 1, 1,12,15.00,30.00,Saturday
699,0.6094781025861589
700,12.790929978765533
701,0.6094781025861589
702,12.790929978765533
703,0.0
704,0.25
705,0.0
10,172386264.0205342
46,8876897.26720681
84,79254163.57185927
122,185488749.54305283
158,89170307.4010563
256,14554304.839947768
283,0.2552092568638618
307,0.2552092568638618
406,96318442.14199652
719,26299274.645753158
744,0.0
833,43401623.6950188
859,0.0
885,0.0
952,0.0007483712228625488
2,1, 6, 1, 1,12,30.00,45.00,Saturday
699,0.6108414346211151
700,12.826160257165796
701,0.6108414346211151
702,12.826160257165796
703,0.0
704,0.25
705,0.0
10,172937656.0393698
46,8876897.26720681
84,79254163.57185927
122,185488298.82615347
158,89170307.4010563
256,14402147.677967169
283,0.2552092568638618
307,0.2552092568638618
406,96317991.42509714
719,26299274.645753158
744,0.0
833,44105172.87583501
859,0.0
885,0.0
952,0.0007483712228625488
2,1, 6, 1, 1,12,45.00,60.00,Saturday
699,0.6109713923764102
700,12.829522746331535
701,0.6109713923764102
702,12.829522746331535
703,0.0
704,0.25
705,0.0
10,173564484.5436074
46,8876897.26720681
84,79254163.57185927
122,185487843.8445008
158,89170307.4010563
256,14486385.5581901
283,0.2552092568638618
307,0.2552092568638618
406,96317536.4434445
719,26299274.645753158
744,0.0
833,44647763.4998497
859,0.0
885,0.0
952,0.0007483712228625488
2,1, 6, 1, 1,13, 0.00,15.00,Saturday
699,0.6063818104186173
700,12.711217394440027
701,0.6063818104186173
702,12.711217394440027
703,0.0
704,0.25
705,0.0
10,166070334.7207912
46,8876897.26720681
84,73383484.78875858
122,178494507.29767765
158,82565099.4454225
256,13023487.124824092
283,0.22968833117747568
307,0.22968833117747568
406,95929407.85225512
719,26299274.645753158
744,0.0
833,44487190.89351888
859,0.0
885,0.0
952,0.0007296605071649328
2,1, 6, 1, 1,13,15.00,30.00,Saturday
699,0.6058957228355746
700,12.69874108664655
701,0.6058957228355746
702,12.69874108664655
703,0.0
704,0.25
705,0.0
10,166936307.56290657
46,8876897.26720681
84,73383484.78875858
122,170207707.84310163
158,82565099.4454225
256,13022439.287097883
283,0.22968833117747568
307,0.22968833117747568
406,87642608.39767912
719,26299274.645753158
744,0.0
833,45354211.57336047
859,0.0
885,0.0
952,0.0007296605071649328
2,1, 6, 1, 1,13,30.00,45.00,Saturday
699,0.6070841627994412
700,12.729262638896899
701,0.6070841627994412
702,12.729262638896899
703,0.0
704,0.25
705,0.0
10,167939219.92445378
46,8876897.26720681
84,73383484.78875858
122,171189626.87869526
158,82565099.4454225
256,13037517.505667218
283,0.22968833117747568
307,0.22968833117747568
406,88624527.43327274
719,26299274.645753158
744,0.0
833,46342045.716338369
859,0.0
885,0.0
952,0.0007296605071649328
2,1, 6, 1, 1,13,45.00,60.00,Saturday
699,0.6065626678469357
700,12.71586204159756
701,0.6065626678469357
702,12.71586204159756
703,0.0
704,0.25
705,0.0
10,168914830.69632367
46,8876897.26720681
84,73383484.78875858
122,178481382.432445
158,82565099.4454225
256,13048585.45323307
283,0.22968833117747568
307,0.22968833117747568
406,95916282.98702249
719,26299274.645753158
744,0.0
833,47306588.54064238
859,0.0
885,0.0
952,0.0007296605071649328
2,1, 6, 1, 1,14, 0.00,15.00,Saturday
699,0.5948959710512765
700,12.419154461758879
701,0.5948959710512765
702,12.419154461758879
703,0.0
704,0.25
705,0.0
10,157951745.02888478
46,8876897.26720681
84,67512806.00565791
122,171470033.14429809
158,75959891.4897887
256,11433455.293882747
283,0.20416740549108948
307,0.20416740549108948
406,95510141.6545094
719,26299274.645753158
744,0.0
833,43829311.81567319
859,0.0
885,0.0
952,0.000710949791467317
2,1, 6, 1, 1,14,15.00,30.00,Saturday
699,0.5916280882230044
700,12.337104698211349
701,0.5916280882230044
702,12.337104698211349
703,0.0
704,0.25
705,0.0
10,158527208.88973273
46,8876897.26720681
84,67512806.00565791
122,171474662.97694213
158,75959891.4897887
256,11686139.48333861
283,0.20416740549108948
307,0.20416740549108948
406,95514771.48715343
719,26299274.645753158
744,0.0
833,44152091.48706527
859,0.0
885,0.0
952,0.000710949791467317
2,1, 6, 1, 1,14,30.00,45.00,Saturday
699,0.5888345016191495
700,12.267330971421217
701,0.5888345016191495
702,12.267330971421217
703,0.0
704,0.25
705,0.0
10,158784024.62605603
46,8876897.26720681
84,67512806.00565791
122,171479037.8862517
158,75959891.4897887
256,11395419.45950789
283,0.20416740549108948
307,0.20416740549108948
406,95519146.39646298
719,26299274.645753158
744,0.0
833,44699627.24721927
859,0.0
885,0.0
952,0.000710949791467317
2,1, 6, 1, 1,14,45.00,60.00,Saturday
699,0.5890426548950957
700,12.272518212530344
701,0.5890426548950957
702,12.272518212530344
703,0.0
704,0.25
705,0.0
10,159664723.95413644
46,8876897.26720681
84,67512806.00565791
122,155492164.74010629
158,75959891.4897887
256,11671410.216008993
283,0.20416740549108948
307,0.20416740549108948
406,79532273.25031758
719,26299274.645753158
744,0.0
833,45304335.8187986
859,0.0
885,0.0
952,0.000710949791467317
2,1, 6, 1, 1,15, 0.00,15.00,Saturday
699,0.5864942478095466
700,12.209140563291613
701,0.5864942478095466
702,12.209140563291613
703,0.0
704,0.25
705,0.0
10,159027506.20918937
46,8876897.26720681
84,67512806.00565791
122,171467943.76643179
158,75959891.4897887
256,11586363.695849307
283,0.20416740549108948
307,0.20416740549108948
406,95508052.27664308
719,26299274.645753158
744,0.0
833,44752164.5940112
859,0.0
885,0.0
952,0.000710949791467317
2,1, 6, 1, 1,15,15.00,30.00,Saturday
699,0.5821164410877373
700,12.100924541958861
701,0.5821164410877373
702,12.100924541958861
703,0.0
704,0.25
705,0.0
10,157584700.48887796
46,7310385.98475855
84,67512806.00565791
122,171472688.57069386
158,75959891.4897887
256,11546085.974606796
283,0.20416740549108948
307,0.20416740549108948
406,95512797.08090516
719,26299274.645753158
744,0.0
833,44916147.87739058
859,0.0
885,0.0
952,0.000710949791467317
2,1, 6, 1, 1,15,30.00,45.00,Saturday
699,0.5788361133593428
700,12.020382398871988
701,0.5788361133593428
702,12.020382398871988
703,0.0
704,0.25
705,0.0
10,157978356.3213167
46,7310385.98475855
84,67512806.00565791
122,171477172.21961219
158,75959891.4897887
256,11661478.861694877
283,0.20416740549108948
307,0.20416740549108948
406,95517280.72982349
719,26299274.645753158
744,0.0
833,45194410.82274124
859,0.0
885,0.0
952,0.000710949791467317
2,1, 6, 1, 1,15,45.00,60.00,Saturday
699,0.5754036425260399
700,11.936604553967769
701,0.5754036425260399
702,11.936604553967769
703,0.0
704,0.25
705,0.0
10,158015069.25533513
46,7310385.98475855
84,67512806.00565791
122,161323603.0004915
158,75959891.4897887
256,11403119.322649885
283,0.20416740549108948
307,0.20416740549108948
406,85363711.51070282
719,26299274.645753158
744,0.0
833,45489483.29580466
859,0.0
885,0.0
952,0.000710949791467317
2,1, 6, 1, 1,16, 0.00,15.00,Saturday
699,0.5788289381584922
700,12.020206737364746
701,0.5788289381584922
702,12.020206737364746
703,0.0
704,0.25
705,0.0
10,167305055.17089577
46,7310385.98475855
84,76318824.18030893
122,174955804.70732156
158,85867703.4232394
256,10263949.18872836
283,0.17864647980470328
307,0.17864647980470328
406,89088101.28408216
719,26299274.645753158
744,0.0
833,47112621.17065451
859,0.0
885,0.0
952,0.000692239075769701
2,1, 6, 1, 1,16,15.00,30.00,Saturday
699,0.5779750614208566
700,11.999318287138664
701,0.5779750614208566
702,11.999318287138664
703,0.0
704,0.25
705,0.0
10,167572964.11287696
46,7310385.98475855
84,76318824.18030893
122,180950662.499453
158,85867703.4232394
256,10009784.500116881
283,0.17864647980470328
307,0.17864647980470328
406,95082959.07621362
719,26299274.645753158
744,0.0
833,47634694.80124718
859,0.0
885,0.0
952,0.000692239075769701
2,1, 6, 1, 1,16,30.00,45.00,Saturday
699,0.5779121163305145
700,11.99777970868415
701,0.5779121163305145
702,11.99777970868415
703,0.0
704,0.25
705,0.0
10,168219402.56912948
46,7310385.98475855
84,76318824.18030893
122,168747755.95865638
158,85867703.4232394
256,10246805.833108355
283,0.17864647980470328
307,0.17864647980470328
406,82880052.53541698
719,26299274.645753158
744,0.0
833,48044111.92450822
859,0.0
885,0.0
952,0.000692239075769701
2,1, 6, 1, 1,16,45.00,60.00,Saturday
699,0.5799753189236862
700,12.048300482933812
701,0.5799753189236862
702,12.048300482933812
703,0.0
704,0.25
705,0.0
10,170116831.47402437
46,8876897.26720681
84,76318824.18030893
122,176732319.9901514
158,85867703.4232394
256,9986255.050591335
283,0.17864647980470328
307,0.17864647980470328
406,90864616.566912
719,26299274.645753158
744,0.0
833,48635580.329471867
859,0.0
885,0.0
952,0.000692239075769701
2,1, 6, 1, 1,17, 0.00,15.00,Saturday
699,0.5810920885659359
700,12.07572339761154
701,0.5810920885659359
702,12.07572339761154
703,0.0
704,0.25
705,0.0
10,173541700.98536817
46,9985998.747488182
84,76318824.18030893
122,181381228.6941278
158,85867703.4232394
256,11696966.376095467
283,0.20416740549108948
307,0.20416740549108948
406,95513525.2708884
719,26299274.645753158
744,0.0
833,49240637.035011459
859,0.0
885,0.0
952,0.000710949791467317
2,1, 6, 1, 1,17,15.00,30.00,Saturday
699,0.5808152769916055
700,12.06892108727422
701,0.5808152769916055
702,12.06892108727422
703,0.0
704,0.25
705,0.0
10,173762248.72463916
46,9985998.747488182
84,76318824.18030893
122,181385672.24291928
158,85867703.4232394
256,11464600.017264493
283,0.20416740549108948
307,0.20416740549108948
406,95517968.81967987
719,26299274.645753158
744,0.0
833,49693551.13311342
859,0.0
885,0.0
952,0.000710949791467317
2,1, 6, 1, 1,17,30.00,45.00,Saturday