Program Version,EnergyPlus, Version 9.1.0-fafb9d5652, YMD=2020.03.25 14:41
1,5,Environment Title[],Latitude[deg],Longitude[deg],Time Zone[],Elevation[m]
2,8,Day of Simulation[],Month[],Day of Month[],DST Indicator[1=yes 0=no],Hour[],StartMinute[],EndMinute[],DayType
3,5,Cumulative Day of Simulation[],Month[],Day of Month[],DST Indicator[1=yes 0=no],DayType  ! When Daily Report Variables Requested
4,2,Cumulative Days of Simulation[],Month[]  ! When Monthly Report Variables Requested
5,1,Cumulative Days of Simulation[] ! When Run Period Report Variables Requested
6,1,Calendar Year of Simulation[] ! When Annual Report Variables Requested
699,1,BUILDING STORY 1 THERMALZONE FULLSERVICERESTAURANT DINING PEOPLE 1,Zone Thermal Comfort Fanger Model PMV [] !TimeStep
700,1,BUILDING STORY 1 THERMALZONE FULLSERVICERESTAURANT DINING PEOPLE 1,Zone Thermal Comfort Fanger Model PPD [%] !TimeStep
701,1,BUILDING STORY 1 THERMALZONE FULLSERVICERESTAURANT KITCHEN PEOPLE 1,Zone Thermal Comfort Fanger Model PMV [] !TimeStep
702,1,BUILDING STORY 1 THERMALZONE FULLSERVICERESTAURANT KITCHEN PEOPLE 1,Zone Thermal Comfort Fanger Model PPD [%] !TimeStep
703,1,BUILDING STORY 1 THERMALZONE,Zone Thermal Comfort ASHRAE 55 Simple Model Summer Clothes Not Comfortable Time [hr] !TimeStep
704,1,BUILDING STORY 1 THERMALZONE,Zone Thermal Comfort ASHRAE 55 Simple Model Winter Clothes Not Comfortable Time [hr] !TimeStep
705,1,BUILDING STORY 1 THERMALZONE,Zone Thermal Comfort ASHRAE 55 Simple Model Summer or Winter Clothes Not Comfortable Time [hr] !TimeStep
859,1,Heating:Electricity [J] !TimeStep
885,1,Heating:Gas [J] !TimeStep
833,1,Cooling:Electricity [J] !TimeStep
46,1,InteriorLights:Electricity [J] !TimeStep
744,1,ExteriorLights:Electricity [J] !TimeStep
84,1,InteriorEquipment:Electricity [J] !TimeStep
158,1,InteriorEquipment:Gas [J] !TimeStep
719,1,Fans:Electricity [J] !TimeStep
952,1,Pumps:Electricity [J] !TimeStep
256,1,WaterSystems:Electricity [J] !TimeStep
406,1,WaterSystems:Gas [J] !TimeStep
307,1,WaterSystems:Water [m3] !TimeStep
10,1,Electricity:Facility [J] !TimeStep
122,1,Gas:Facility [J] !TimeStep
283,1,Water:Facility [m3] !TimeStep
End of Data Dictionary
1,RUN PERIOD 1,  42.93, -78.73,  -5.00, 215.00
2,1, 1, 1, 0, 1, 0.00,60.00,Tuesday
699,-0.4410433162947709
700,9.05795298864254
701,-0.4410433162947709
702,9.05795298864254
703,1.0
704,0.0
705,0.0
10,94547167.3109057
46,10584860.447778857
84,35224072.69860412
122,406150653.19146606
158,39631247.733802799
256,23266605.88197963
283,0.40833481098217896
307,0.40833481098217896
406,366519405.45766326
719,0.0
744,25471628.279999999
833,0.0
859,0.0
885,0.0
952,0.002543090910367526
2,1, 1, 1, 0, 2, 0.00,60.00,Tuesday
699,-0.2958764290451776
700,6.8189535716295499
701,-0.2958764290451776
702,6.8189535716295499
703,0.0
704,0.0
705,0.0
10,61095969.05961523
46,11769285.075227144
84,23482715.132402749
122,29336570.36760238
158,26420831.8225352
256,372340.5719853417
283,0.0
307,0.0
406,2915738.545067183
719,0.0
744,25471628.279999999
833,0.0
859,0.0
885,0.0
952,0.0
2,1, 1, 1, 0, 3, 0.00,60.00,Tuesday
699,-0.295721698567106
700,6.817044897417006
701,-0.295721698567106
702,6.817044897417006
703,0.0
704,0.0
705,0.0
10,72651122.16259386
46,11769285.075227144
84,35224072.69860412
122,39631247.733802799
158,39631247.733802799
256,186136.10876259703
283,0.0
307,0.0
406,0.0
719,0.0
744,25471628.279999999
833,0.0
859,0.0
885,0.0
952,0.0
2,1, 1, 1, 0, 4, 0.00,60.00,Tuesday
699,-0.2867283645418176
700,6.707845463084581
701,-0.2867283645418176
702,6.707845463084581
703,0.0
704,0.0
705,0.0
10,61096219.08089818
46,11769285.075227144
84,23482715.132402749
122,26420831.8225352
158,26420831.8225352
256,372590.59326828949
283,0.0
307,0.0
406,0.0
719,0.0
744,25471628.279999999
833,0.0
859,0.0
885,0.0
952,0.0
2,1, 1, 1, 0, 5, 0.00,60.00,Tuesday
699,-0.2684664880790497
700,6.496606181971259
701,-0.2684664880790497
702,6.496606181971259
703,0.0
704,0.0
705,0.0
10,96320224.47973983
46,11769285.075227144
84,58706787.83100687
122,66052079.556338008
158,66052079.556338008
256,372523.2935058256
283,0.0
307,0.0
406,0.0
719,0.0
744,25471628.279999999
833,0.0
859,0.0
885,0.0
952,0.0
2,1, 1, 1, 0, 6, 0.00,60.00,Tuesday
699,-0.19698251159714529
700,5.804592384542843
701,-0.19698251159714529
702,5.804592384542843
703,1.0
704,0.0
705,0.0
10,180851860.50366346
46,14111415.234047126
84,140896290.7944165
122,158524990.93521119
158,158524990.93521119
256,372526.1951998052
283,0.0
307,0.0
406,0.0
719,0.0
744,25471628.279999999
833,0.0
859,0.0
885,0.0
952,0.0
2,1, 1, 1, 0, 7, 0.00,60.00,Tuesday
699,0.06625486246977137
700,5.090887002029149
701,0.06625486246977137
702,5.090887002029149
703,1.0
704,0.0
705,0.0
10,220847398.01176704
46,28222830.468094253
84,152637648.36061786
122,531704639.0278083
158,171735406.8464788
256,372370.87264657966
283,0.3062511082366342
307,0.3062511082366342
406,359969232.1813295
719,0.0
744,39614548.307940099
833,0.0
859,0.0
885,0.0
952,0.002468287368899971
2,1, 1, 1, 0, 8, 0.00,60.00,Tuesday
699,0.224438428894853
700,6.045030348805
701,0.224438428894853
702,6.045030348805
703,1.0
704,0.0
705,0.0
10,418582983.0883088
46,28222830.468094253
84,176120363.4930206
122,884624208.3954234
158,198156238.66901399
256,68694725.61909952
283,1.225004432946537
307,1.225004432946537
406,446057148.73863676
719,105930515.19701293
744,39614548.307940099
833,0.0
859,0.0
885,240410820.9877727
952,0.0031415192421079647
2,1, 1, 1, 0, 9, 0.00,60.00,Tuesday
699,-0.21542249244513823
700,5.96259497980725
701,-0.21542249244513823
702,5.96259497980725
703,1.0
704,0.0
705,0.0
10,425290668.6850874
46,42334245.70214138
84,211344436.1916247
122,959192094.027968
158,237787486.40281678
256,65681471.591241639
283,1.1229207302009923
307,1.1229207302009923
406,446057148.7386368
719,105930515.19701293
744,0.0
833,0.0
859,0.0
885,275347458.88651457
952,0.0030667157006404098
2,1, 1, 1, 0,10, 0.00,60.00,Tuesday
699,-0.3122498506939677
700,7.02664897821559
701,-0.3122498506939677
702,7.02664897821559
703,1.0
704,0.0
705,0.0
10,446623593.1135408
46,42334245.70214138
84,246568508.89022885
122,931196856.4716976
158,277418734.13661959
256,51790323.321240577
283,0.9187533247099027
307,0.9187533247099027
406,432176872.5930955
719,105930515.19701293
744,0.0
833,0.0
859,0.0
885,221601249.74198244
952,0.0029171086177053006
2,1, 1, 1, 0,11, 0.00,60.00,Tuesday
699,-0.30805277072837397
700,6.972328410744069
701,-0.30805277072837397
702,6.972328410744069
703,1.0
704,0.0
705,0.0
10,520888815.40580919
46,63503966.59769909
84,305275296.7212357
122,970519874.6579831
158,343470813.6929576
256,46179036.8870191
283,0.8166696219643579
307,0.8166696219643579
406,403348128.4310657
719,105930515.19701293
744,0.0
833,0.0
859,0.0
885,223700932.53395994
952,0.002842305076237745
2,1, 1, 1, 0,12, 0.00,60.00,Tuesday
699,-0.2859336072109029
700,6.698359546982971
701,-0.2859336072109029
702,6.698359546982971
703,1.0
704,0.0
705,0.0
10,561777915.4808414
46,63503966.59769909
84,340499369.4198398
122,906433677.3085157
158,383102061.4267604
256,51844064.26337256
283,0.9187533247099027
307,0.9187533247099027
406,432173782.08273956
719,105930515.19701293
744,0.0
833,0.0
859,0.0
885,91157833.79901578
952,0.0029171086177053006
2,1, 1, 1, 0,13, 0.00,60.00,Tuesday
699,-0.2643002241688808
700,6.450383135369279
701,-0.2643002241688808
702,6.450383135369279
703,1.0
704,0.0
705,0.0
10,532536335.079563
46,63503966.59769909
84,317016654.2874371
122,760023331.7617509
158,356681229.6042252
256,46085198.99457155
283,0.8166696219643579
307,0.8166696219643579
406,403342102.15752568
719,105930515.19701293
744,0.0
833,0.0
859,0.0
885,0.0
952,0.002842305076237745
2,1, 1, 1, 0,14, 0.00,60.00,Tuesday
699,-0.24213206321219703
700,6.216717624615043
701,-0.24213206321219703
702,6.216717624615043
703,1.0
704,0.0
705,0.0
10,503404412.5516519
46,63503966.59769909
84,293533939.1550343
122,733313007.0481769
158,330260397.78169
256,40435991.599138017
283,0.7145859192188131
307,0.7145859192188131
406,403052609.2664869
719,105930515.19701293
744,0.0
833,0.0
859,0.0
885,0.0
952,0.0027675015347701909
2,1, 1, 1, 0,15, 0.00,60.00,Tuesday
699,-0.2646063937274763
700,6.453755081362374
701,-0.2646063937274763
702,6.453755081362374
703,1.0
704,0.0
705,0.0
10,474234590.8858751
46,63503966.59769909
84,270051224.02263167
122,822796192.0512861
158,303839565.9591548
256,34748885.06583876
283,0.6125022164732684
307,0.6125022164732684
406,400027001.1242928
719,105930515.19701293
744,0.0
833,0.0
859,0.0
885,118929624.96783854
952,0.002692697993302636
2,1, 1, 1, 0,16, 0.00,60.00,Tuesday
699,-0.28238958317377507
700,6.656383919686988
701,-0.28238958317377507
702,6.656383919686988
703,1.0
704,0.0
705,0.0
10,474213121.84827116
46,63503966.59769909
84,270051224.02263167
122,886572203.9588235
158,303839565.9591548
256,34727416.02823479
283,0.6125022164732684
307,0.6125022164732684
406,385951888.8539654
719,105930515.19701293
744,0.0
833,0.0
859,0.0
885,196780749.14570339
952,0.002692697993302636
2,1, 1, 1, 0,17, 0.00,60.00,Tuesday
699,-0.28567105830645908
700,6.695231723223515
701,-0.28567105830645908
702,6.695231723223515
703,1.0
704,0.0
705,0.0
10,509463117.3658905
46,63503966.59769909
84,305275296.7212357
122,906672502.4245757
158,343470813.6929576
256,34753338.84725003
283,0.6125022164732684
307,0.6125022164732684
406,397546328.09231749
719,105930515.19701293
744,0.0
833,0.0
859,0.0
885,165655360.6393007
952,0.002692697993302636
2,1, 1, 1, 0,18, 0.00,60.00,Tuesday
699,-0.2802583748697999
700,6.631396925676768
701,-0.2802583748697999
702,6.631396925676768
703,1.0
704,0.0
705,0.0
10,560665662.0561698
46,63503966.59769909
84,305275296.7212357
122,849101254.1110009
158,343470813.6929576
256,46341335.22943963
283,0.8166696219643579
307,0.8166696219643579
406,406573496.2835431
719,105930515.19701293
744,39614548.307940099
833,0.0
859,0.0
885,99056944.13450018
952,0.002842305076237745
2,1, 1, 1, 0,19, 0.00,60.00,Tuesday
699,-0.26764911506297237
700,6.487480111638405
701,-0.26764911506297237
702,6.487480111638405
703,1.0
704,0.0
705,0.0
10,555282201.7562368
46,63503966.59769909
84,281792581.588833
122,791619690.0873034
158,317049981.87042239
256,64440590.06168507
283,1.1229207302009923
307,1.1229207302009923
406,446057148.7386368
719,105930515.19701293
744,39614548.307940099
833,0.0
859,0.0
885,28512559.478244317
952,0.0030667157006404098
2,1, 1, 1, 0,20, 0.00,60.00,Tuesday
699,-0.26393674893162796
700,6.446385187038572
701,-0.26393674893162796
702,6.446385187038572
703,1.0
704,0.0
705,0.0
10,536190915.6706523
46,63503966.59769909
84,258309866.4564302
122,773360339.9279367
158,290629150.0478872
256,68832019.10842848
283,1.2250044329465369
307,1.2250044329465369
406,446057148.7386368
719,105930515.19701293
744,39614548.307940099
833,0.0
859,0.0
885,36674041.14141256
952,0.003141519242107965
2,1, 1, 1, 0,21, 0.00,60.00,Tuesday
699,-0.26581970691557035
700,6.46715651194782
701,-0.26581970691557035
702,6.46715651194782
703,1.0
704,0.0
705,0.0
10,501616080.9558748
46,63503966.59769909
84,234827151.32402749
122,775747195.2342523
158,264208318.22535203
256,57739899.526203338
283,1.0208370274554473
307,1.0208370274554473
406,446057148.7386368
719,105930515.19701293
744,39614548.307940099
833,0.0
859,0.0
885,65481728.27026359
952,0.0029919121591728554
2,1, 1, 1, 0,22, 0.00,60.00,Tuesday
699,-0.28548415592895728
700,6.693006871945727
701,-0.28548415592895728
702,6.693006871945727
703,1.0
704,0.0
705,0.0
10,483073630.52685698
46,63503966.59769909
84,211344436.1916247
122,870396680.085246
158,237787486.40281678
256,62680164.22951349
283,1.1229207302009923
307,1.1229207302009923
406,446057148.7386368
719,105930515.19701293
744,39614548.307940099
833,0.0
859,0.0
885,186552044.9437925
952,0.0030667157006404098
2,1, 1, 1, 0,23, 0.00,60.00,Tuesday
699,-0.3416569451373216
700,7.428189925594751
701,-0.3416569451373216
702,7.428189925594751
703,1.0
704,0.0
705,0.0
10,337974372.84278139
46,35281136.12960483
84,105672218.09581235
122,864875962.6637905
158,118893743.20140839
256,51475955.1094941
283,0.9187533247099027
307,0.9187533247099027
406,418302707.70064666
719,105930515.19701293
744,39614548.307940099
833,0.0
859,0.0
885,327679511.7617355
952,0.0029171086177053006
2,1, 1, 1, 0,24, 0.00,60.00,Tuesday
699,-0.39963206031778306
700,8.327560143484618
701,-0.39963206031778306
702,8.327560143484618
703,1.0
704,0.0
705,0.0
10,231006955.25201238
46,21169720.895557714
84,35224072.69860412
122,866919959.9104674
158,39631247.733802799
256,29068098.150279594
283,0.5104185137277236
307,0.5104185137277236
406,384203012.98688319
719,105930515.19701293
744,39614548.307940099
833,0.0
859,0.0
885,443085699.18978139
952,0.002617894451835081
2,2, 1, 2, 0, 1, 0.00,60.00,Wednesday
699,-0.44268341607139707
700,9.088395411451984
701,-0.44268341607139707
702,9.088395411451984
703,1.0
704,0.0
705,0.0
10,94526011.04169475
46,10584860.447778857
84,35224072.69860412
122,406239498.9854843
158,39631247.733802799
256,23245449.61276868
283,0.40833481098217896
307,0.40833481098217896
406,366608251.2516815
719,0.0
744,25471628.279999999
833,0.0
859,0.0
885,0.0
952,0.0025430846653832744
2,2, 1, 2, 0, 2, 0.00,60.00,Wednesday
699,-0.30191995043340549
700,6.894294923193712
701,-0.30191995043340549
702,6.894294923193712
703,0.0
704,0.0
705,0.0
10,61096102.769663099
46,11769285.075227144
84,23482715.132402749
122,37967146.2222283
158,26420831.8225352
256,372474.28203320255
283,0.0
307,0.0
406,11546314.399693106
719,0.0
744,25471628.279999999
833,0.0
859,0.0
885,0.0
952,0.0
2,2, 1, 2, 0, 3, 0.00,60.00,Wednesday
699,-0.32276342792496878
700,7.165995506962517
701,-0.32276342792496878
702,7.165995506962517
703,0.0
704,0.0
705,0.0
10,72837392.542804
46,11769285.075227144
84,35224072.69860412
122,39631247.733802799
158,39631247.733802799
256,372406.4889727419
283,0.0
307,0.0
406,0.0
719,0.0
744,25471628.279999999
833,0.0
859,0.0
885,0.0
952,0.0
2,2, 1, 2, 0, 4, 0.00,60.00,Wednesday
699,-0.31768011471834758
700,7.098036755233039
701,-0.31768011471834758
702,7.098036755233039
703,0.0
704,0.0
705,0.0
10,61095966.89814275
46,11769285.075227144
84,23482715.132402749
122,26420831.8225352
158,26420831.8225352
256,372338.41051285908
283,0.0
307,0.0
406,0.0
719,0.0
744,25471628.279999999
833,0.0
859,0.0
885,0.0
952,0.0
2,2, 1, 2, 0, 5, 0.00,60.00,Wednesday
699,-0.31614294259215977
700,7.077701926752084
701,-0.31614294259215977
702,7.077701926752084
703,0.0
704,0.0
705,0.0
10,96133836.20974775
46,11769285.075227144
84,58706787.83100687
122,66052079.556338008
158,66052079.556338008
256,186135.0235137547
283,0.0
307,0.0
406,0.0
719,0.0
744,25471628.279999999
833,0.0
859,0.0
885,0.0
952,0.0
2,2, 1, 2, 0, 6, 0.00,60.00,Wednesday
699,-0.2465285374777163
700,6.261416661702299
701,-0.2465285374777163
702,6.261416661702299
703,1.0
704,0.0
705,0.0
10,180851906.04385115
46,14111415.234047126
84,140896290.7944165
122,158524990.93521119
158,158524990.93521119
256,372571.7353875018
283,0.0
307,0.0
406,0.0
719,0.0
744,25471628.279999999
833,0.0
859,0.0
885,0.0
952,0.0
2,2, 1, 2, 0, 7, 0.00,60.00,Wednesday
699,-0.01273769792493578
700,5.003358658837442
701,-0.01273769792493578
702,5.003358658837442
703,1.0
704,0.0
705,0.0
10,220847589.76639147
46,28222830.468094253
84,152637648.36061786
122,531779810.9313241
158,171735406.8464788
256,372562.6272709969
283,0.30625110823663417
307,0.30625110823663417
406,360044404.0848453
719,0.0
744,39614548.307940099
833,0.0
859,0.0
885,0.0
952,0.0024682805750842206
2,2, 1, 2, 0, 8, 0.00,60.00,Wednesday
699,0.1590217507320059
700,5.524058695242957
701,0.1590217507320059
702,5.524058695242957
703,1.0
704,0.0
705,0.0
10,418646222.58094766
46,28222830.468094253
84,176120363.4930206
122,918644381.6317099
158,198156238.66901399
256,68757965.11173825
283,1.225004432946537
307,1.225004432946537
406,446057148.73863676
719,105930515.19701293
744,39614548.307940099
833,0.0
859,0.0
885,274430994.2240592
952,0.0031415105951708608
2,2, 1, 2, 0, 9, 0.00,60.00,Wednesday
699,-0.2357841116509492
700,6.153610115775905
701,-0.2357841116509492
702,6.153610115775905
703,1.0
704,0.0
705,0.0
10,425495997.6013524
46,42334245.70214138
84,211344436.1916247
122,968749434.2040609
158,237787486.40281678
256,65886800.50750663
283,1.1229207302009923
307,1.1229207302009923
406,446057148.7386368
719,105930515.19701293
744,0.0
833,0.0
859,0.0
885,284904799.0626074
952,0.003066707259597792
2,2, 1, 2, 0,10, 0.00,60.00,Wednesday
699,-0.32171653264014107
700,7.151910030814804
701,-0.32171653264014107
702,7.151910030814804
703,1.0
704,0.0
705,0.0
10,446645181.51996657
46,42334245.70214138
84,246568508.89022885
122,942638295.9845138
158,277418734.13661959
256,51811911.72766628
283,0.9187533247099027
307,0.9187533247099027
406,432195071.9829569
719,105930515.19701293
744,0.0
833,0.0
859,0.0
885,233024489.86493735
952,0.0029171005884516727
2,2, 1, 2, 0,11, 0.00,60.00,Wednesday
699,-0.3135159658881207
700,7.04318204379986
701,-0.3135159658881207
702,7.04318204379986
703,1.0
704,0.0
705,0.0
10,520823817.2031858
46,63503966.59769909
84,305275296.7212357
122,997095046.8083305
158,343470813.6929576
256,46114038.684395749
283,0.8166696219643579
307,0.8166696219643579
406,403403229.5605633
719,105930515.19701293
744,0.0
833,0.0
859,0.0
885,250221003.5548096
952,0.0028422972528786138
2,2, 1, 2, 0,12, 0.00,60.00,Wednesday
699,-0.28795038658632707
700,6.722483062494874
701,-0.28795038658632707
702,6.722483062494874
703,1.0
704,0.0
705,0.0
10,562065465.1622959
46,63503966.59769909
84,340499369.4198398
122,907776105.7039102
158,383102061.4267604
256,52131613.94482706
283,0.9187533247099027
307,0.9187533247099027
406,432190680.634279
719,105930515.19701293
744,0.0
833,0.0
859,0.0
885,92483363.64287076
952,0.0029171005884516727
2,2, 1, 2, 0,13, 0.00,60.00,Wednesday
699,-0.26874262380958738
700,6.499695630930319
701,-0.26874262380958738
702,6.499695630930319
703,1.0
704,0.0
705,0.0
10,532516880.77966669
46,63503966.59769909
84,317016654.2874371
122,774296597.5799805
158,356681229.6042252
256,46065744.694675277
283,0.8166696219643579
307,0.8166696219643579
406,417615367.9757553
719,105930515.19701293
744,0.0
833,0.0
859,0.0
885,0.0
952,0.0028422972528786138
2,2, 1, 2, 0,14, 0.00,60.00,Wednesday
699,-0.2533067243458839
700,6.331922160727714
701,-0.2533067243458839
702,6.331922160727714
703,1.0
704,0.0
705,0.0
10,503466532.17173346
46,63503966.59769909
84,293533939.1550343
122,760472216.5357499
158,330260397.78169
256,40498111.21921956
283,0.7145859192188131
307,0.7145859192188131
406,402257817.6065714
719,105930515.19701293
744,0.0
833,0.0
859,0.0
885,27954001.147488588
952,0.002767493917305554
2,2, 1, 2, 0,15, 0.00,60.00,Wednesday
699,-0.2728453389377083
700,6.545975878283443
701,-0.2728453389377083
702,6.545975878283443
703,1.0
704,0.0
705,0.0
10,474233151.18659916
46,63503966.59769909
84,270051224.02263167
122,834281617.3666902
158,303839565.9591548
256,34747445.366562809
283,0.6125022164732684
307,0.6125022164732684
406,386041334.6242125
719,105930515.19701293
744,0.0
833,0.0
859,0.0
885,144400716.78332276
952,0.0026926905817324946
2,2, 1, 2, 0,16, 0.00,60.00,Wednesday
699,-0.291612944316848
700,6.7667315085364099
701,-0.291612944316848
702,6.7667315085364099
703,1.0
704,0.0
705,0.0
10,474089740.351586
46,63503966.59769909
84,270051224.02263167
122,913802771.3505287
158,303839565.9591548
256,34604034.531549628
283,0.6125022164732684
307,0.6125022164732684
406,388471934.2049787
719,105930515.19701293
744,0.0
833,0.0
859,0.0
885,221491271.18639515
952,0.0026926905817324946
2,2, 1, 2, 0,17, 0.00,60.00,Wednesday
699,-0.29407693960712497
700,6.79681854077144
701,-0.29407693960712497
702,6.79681854077144
703,1.0
704,0.0
705,0.0
10,509476139.1755527
46,63503966.59769909
84,305275296.7212357
122,932761900.7383907
158,343470813.6929576
256,34766360.65691234
283,0.6125022164732684
307,0.6125022164732684
406,398554600.35403916
719,105930515.19701293
744,0.0
833,0.0
859,0.0
885,190736486.69139404
952,0.0026926905817324946
2,2, 1, 2, 0,18, 0.00,60.00,Wednesday
699,-0.2879205478819001
700,6.722124898268461
701,-0.2879205478819001
702,6.722124898268461
703,1.0
704,0.0
705,0.0
10,560385686.8112223
46,63503966.59769909
84,305275296.7212357
122,884271767.5274601
158,343470813.6929576
256,46061359.984492268
283,0.8166696219643579
307,0.8166696219643579
406,417615782.4854218
719,105930515.19701293
744,39614548.307940099
833,0.0
859,0.0
885,123185171.34908083
952,0.0028422972528786138
2,2, 1, 2, 0,19, 0.00,60.00,Wednesday
699,-0.2754602580873581
700,6.575843330572226
701,-0.2754602580873581
702,6.575843330572226
703,1.0
704,0.0
705,0.0
10,553512431.4387776
46,63503966.59769909
84,281792581.588833
122,790505396.7606703
158,317049981.87042239
256,62670819.744225908
283,1.1229207302009923
307,1.1229207302009923
406,446057148.7386368
719,105930515.19701293
744,39614548.307940099
833,0.0
859,0.0
885,27398266.15161118
952,0.003066707259597792
2,2, 1, 2, 0,20, 0.00,60.00,Wednesday
699,-0.27037851215219285
700,6.518064083799246
701,-0.27037851215219285
702,6.518064083799246
703,1.0
704,0.0
705,0.0
10,536190915.6706523
46,63503966.59769909
84,258309866.4564302
122,792234979.2024073
158,290629150.0478872
256,68832019.10842848
283,1.2250044329465369
307,1.2250044329465369
406,446057148.7386368
719,105930515.19701293
744,39614548.307940099
833,0.0
859,0.0
885,55548680.4158832
952,0.003141510595170851
2,2, 1, 2, 0,21, 0.00,60.00,Wednesday
699,-0.27184857378547269
700,6.534666749383831
701,-0.27184857378547269
702,6.534666749383831
703,1.0
704,0.0
705,0.0
10,501620341.8814349
46,63503966.59769909
84,234827151.32402749
122,796818005.3922167
158,264208318.22535203
256,57744160.451763439
283,1.0208370274554473
307,1.0208370274554473
406,446057148.7386368
719,105930515.19701293
744,39614548.307940099
833,0.0
859,0.0
885,86552538.42822795
952,0.0029919039240247325
2,2, 1, 2, 0,22, 0.00,60.00,Wednesday
699,-0.2918841381790041
700,6.770030407643361
701,-0.2918841381790041
702,6.770030407643361
703,1.0
704,0.0
705,0.0
10,483292659.9680597
46,63503966.59769909
84,211344436.1916247
122,893562591.0059018
158,237787486.40281678
256,62899193.67071616
283,1.1229207302009923
307,1.1229207302009923
406,446057148.7386368
719,105930515.19701293
744,39614548.307940099
833,0.0
859,0.0
885,209717955.86444829
952,0.003066707259597792
2,2, 1, 2, 0,23, 0.00,60.00,Wednesday
699,-0.3498039396078698
700,7.545927728347195
701,-0.3498039396078698
702,7.545927728347195
703,1.0
704,0.0
705,0.0
10,337929476.31829306
46,35281136.12960483
84,105672218.09581235
122,900199103.8157014
158,118893743.20140839
256,51431058.58500577
283,0.9187533247099027
307,0.9187533247099027
406,419179940.4109533
719,105930515.19701293
744,39614548.307940099
833,0.0
859,0.0
885,362125420.2033397
952,0.0029171005884516727
2,2, 1, 2, 0,24, 0.00,60.00,Wednesday
699,-0.4103377852112811
700,8.509337485850026
701,-0.4103377852112811
702,8.509337485850026
703,1.0
704,0.0
705,0.0
10,230827367.23990918
46,21169720.895557714
84,35224072.69860412
122,901746961.3062601
158,39631247.733802799
256,28888510.138176398
283,0.5104185137277236
307,0.5104185137277236
406,383346480.5863825
719,105930515.19701293
744,39614548.307940099
833,0.0
859,0.0
885,478769232.98607477
952,0.002617887246159435
2,3, 1, 3, 0, 1, 0.00,60.00,Thursday
699,-0.45712955895857845
700,9.3615314810733
701,-0.45712955895857845
702,9.3615314810733
703,1.0
704,0.0
705,0.0
10,94609215.24982967
46,10584860.447778857
84,35224072.69860412
122,410226673.77638509
158,39631247.733802799
256,23328653.820903619
283,0.40833481098217896
307,0.40833481098217896
406,370595426.0425823
719,0.0
744,25471628.279999999
833,0.0
859,0.0
885,0.0
952,0.002543077778862273
2,3, 1, 3, 0, 2, 0.00,60.00,Thursday
699,-0.33314741681581447
700,7.30822397990714
701,-0.33314741681581447
702,7.30822397990714
703,0.0
704,0.0
705,0.0
10,61013920.09025108
46,11769285.075227144
84,23482715.132402749
122,26420831.8225352
158,26420831.8225352
256,290291.6026211937
283,0.0
307,0.0
406,0.0
719,0.0
744,25471628.279999999
833,0.0
859,0.0
885,0.0
952,0.0
2,3, 1, 3, 0, 3, 0.00,60.00,Thursday
699,-0.3213756779354345
700,7.147334018685115
701,-0.3213756779354345
702,7.147334018685115
703,0.0
704,0.0
705,0.0
10,72837525.92808388
46,11769285.075227144
84,35224072.69860412
122,52869793.105055999
158,39631247.733802799
256,372539.8742526124
283,0.0
307,0.0
406,13238545.371253202
719,0.0
744,25471628.279999999
833,0.0
859,0.0
885,0.0
952,0.0
2,3, 1, 3, 0, 4, 0.00,60.00,Thursday
699,-0.31580225913120515
700,7.073208668788837
701,-0.31580225913120515
702,7.073208668788837
703,0.0
704,0.0
705,0.0
10,61096100.84644526
46,11769285.075227144
84,23482715.132402749
122,26420831.8225352
158,26420831.8225352
256,372472.35881537306
283,0.0
307,0.0
406,0.0
719,0.0
744,25471628.279999999
833,0.0
859,0.0
885,0.0
952,0.0
2,3, 1, 3, 0, 5, 0.00,60.00,Thursday
699,-0.33699983604205066
700,7.36215381655731
701,-0.33699983604205066
702,7.36215381655731
703,0.0
704,0.0
705,0.0
10,96320105.74387087
46,11769285.075227144
84,58706787.83100687
122,66052079.556338008
158,66052079.556338008
256,372404.55763686509
283,0.0
307,0.0
406,0.0
719,0.0
744,25471628.279999999
833,0.0
859,0.0
885,0.0
952,0.0
2,3, 1, 3, 0, 6, 0.00,60.00,Thursday
699,-0.2838803715321806
700,6.673976320512821
701,-0.2838803715321806
702,6.673976320512821
703,1.0
704,0.0
705,0.0
10,180851830.08675189
46,14111415.234047126
84,140896290.7944165
122,158524990.93521119
158,158524990.93521119
256,372495.77828823777
283,0.0
307,0.0
406,0.0
719,0.0
744,25471628.279999999
833,0.0
859,0.0
885,0.0
952,0.0
2,3, 1, 3, 0, 7, 0.00,60.00,Thursday
699,-0.06246991074826509
700,5.080797621365647
701,-0.06246991074826509
702,5.080797621365647
703,1.0
704,0.0
705,0.0
10,220661278.9752992
46,28222830.468094253
84,152637648.36061786
122,527881133.4070029
158,171735406.8464788
256,186251.8361787411
283,0.30625110823663417
307,0.30625110823663417
406,356145726.5605241
719,0.0
744,39614548.307940099
833,0.0
859,0.0
885,0.0
952,0.002468273904411392
2,3, 1, 3, 0, 8, 0.00,60.00,Thursday
699,0.10921253120339769
700,5.247034075796321
701,0.10921253120339769
702,5.247034075796321
703,1.0
704,0.0
705,0.0
10,418710572.8273269
46,28222830.468094253
84,176120363.4930206
122,1040656146.2056432
158,198156238.66901399
256,68822315.35811758
283,1.225004432946537
307,1.225004432946537
406,446057148.73863676
719,105930515.19701293
744,39614548.307940099
833,0.0
859,0.0
885,396442758.7979925
952,0.0031415021050561068
2,3, 1, 3, 0, 9, 0.00,60.00,Thursday
699,-0.27292225455597238
700,6.5468502900085359
701,-0.27292225455597238
702,6.5468502900085359
703,1.0
704,0.0
705,0.0
10,425897824.0562647
46,42334245.70214138
84,211344436.1916247
122,1102383879.7865878
158,237787486.40281678
256,66288626.962418969
283,1.1229207302009923
307,1.1229207302009923
406,446057148.7386368
719,105930515.19701293
744,0.0
833,0.0
859,0.0
885,418539244.6451342
952,0.003066698971643395
2,3, 1, 3, 0,10, 0.00,60.00,Thursday
699,-0.36716979947834457
700,7.80631864684085
701,-0.36716979947834457
702,7.80631864684085
703,1.0
704,0.0
705,0.0
10,446682633.0667823
46,42334245.70214138
84,246568508.89022885
122,1119596593.7603923
158,277418734.13661959
256,51849363.274482008
283,0.9187533247099027
307,0.9187533247099027
406,432212837.17822179
719,105930515.19701293
744,0.0
833,0.0
859,0.0
885,409965022.44555088
952,0.0029170927048179898
2,3, 1, 3, 0,11, 0.00,60.00,Thursday
699,-0.3629969766959266
700,7.742577494259834
701,-0.3629969766959266
702,7.742577494259834
703,1.0
704,0.0
705,0.0
10,520780144.75322809
46,63503966.59769909
84,305275296.7212357
122,1162672902.530096
158,343470813.6929576
256,46070366.23443805
283,0.8166696219643579
307,0.8166696219643579
406,411869614.5376185
719,105930515.19701293
744,0.0
833,0.0
859,0.0
885,407332474.2995199
952,0.0028422895714052874
2,3, 1, 3, 0,12, 0.00,60.00,Thursday
699,-0.3416241430264799
700,7.427721581768324
701,-0.3416241430264799
702,7.427721581768324
703,1.0
704,0.0
705,0.0
10,562108452.0190469
46,63503966.59769909
84,340499369.4198398
122,1076401763.8196336
158,383102061.4267604
256,52174600.801578078
283,0.9187533247099027
307,0.9187533247099027
406,424016237.0039416
719,105930515.19701293
744,0.0
833,0.0
859,0.0
885,269283465.3889316
952,0.0029170927048179898
2,3, 1, 3, 0,13, 0.00,60.00,Thursday
699,-0.32403357315891226
700,7.183147084352029
701,-0.32403357315891226
702,7.183147084352029
703,1.0
704,0.0
705,0.0
10,532593790.51527896
46,63503966.59769909
84,317016654.2874371
122,939374317.3143272
158,356681229.6042252
256,46142654.43028754
283,0.8166696219643579
307,0.8166696219643579
406,417649422.7856413
719,105930515.19701293
744,0.0
833,0.0
859,0.0
885,165043664.9244606
952,0.0028422895714052874
2,3, 1, 3, 0,14, 0.00,60.00,Thursday
699,-0.3240882755207712
700,7.1838873013482928
701,-0.3240882755207712
702,7.1838873013482928
703,1.0
704,0.0
705,0.0
10,503428960.037116
46,63503966.59769909
84,293533939.1550343
122,957630795.7093908
158,330260397.78169
256,40460539.084602128
283,0.7145859192188131
307,0.7145859192188131
406,402309454.0080914
719,105930515.19701293
744,0.0
833,0.0
859,0.0
885,225060943.9196094
952,0.0027674864379925846
2,3, 1, 3, 0,15, 0.00,60.00,Thursday
699,-0.33689310750194348
700,7.3606512420050909
701,-0.33689310750194348
702,7.3606512420050909
703,1.0
704,0.0
705,0.0
10,474160754.2314863
46,63503966.59769909
84,270051224.02263167
122,1043859146.8085582
158,303839565.9591548
256,34675048.41145
283,0.6125022164732684
307,0.6125022164732684
406,386109901.8199036
719,105930515.19701293
744,0.0
833,0.0
859,0.0
885,353909679.0294997
952,0.0026926833045798819
2,3, 1, 3, 0,16, 0.00,60.00,Thursday
699,-0.36492268584130657
700,7.771901106656031
701,-0.36492268584130657
702,7.771901106656031
703,1.0
704,0.0
705,0.0
10,474141340.09645286
46,63503966.59769909
84,270051224.02263167
122,1140915812.2446285
158,303839565.9591548
256,34655634.276416499
283,0.6125022164732684
307,0.6125022164732684
406,401074437.0479483
719,105930515.19701293
744,0.0
833,0.0
859,0.0
885,436001809.23752537
952,0.0026926833045798819
2,3, 1, 3, 0,17, 0.00,60.00,Thursday
699,-0.36940538315453189
700,7.840773139465526
701,-0.36940538315453189