Program Version,EnergyPlus, Version 9.1.0-fafb9d5652, YMD=2020.03.25 14:41
1,5,Environment Title[],Latitude[deg],Longitude[deg],Time Zone[],Elevation[m]
2,8,Day of Simulation[],Month[],Day of Month[],DST Indicator[1=yes 0=no],Hour[],StartMinute[],EndMinute[],DayType
3,5,Cumulative Day of Simulation[],Month[],Day of Month[],DST Indicator[1=yes 0=no],DayType  ! When Daily Report Variables Requested
4,2,Cumulative Days of Simulation[],Month[]  ! When Monthly Report Variables Requested
5,1,Cumulative Days of Simulation[] ! When Run Period Report Variables Requested
6,1,Calendar Year of Simulation[] ! When Annual Report Variables Requested
7,9,Environment,Site Outdoor Air Drybulb Temperature [C] !Monthly [Value,Min,Day,Hour,Minute,Max,Day,Hour,Minute]
8,1,Environment,Site Outdoor Air Wetbulb Temperature [C] !TimeStep
545,1,BUILDING STORY 1 THERMALZONE,Zone Air Temperature [C] !Hourly
546,7,BUILDING STORY 1 THERMALZONE,Zone Air Relative Humidity [%] !Daily [Value,Min,Hour,Minute,Max,Hour,Minute]
11,1,Electricity:Facility [J] !TimeStep
123,1,Gas:Facility [J] !TimeStep
End of Data Dictionary
1,BUFFALO NIAGARA INTL AP ANN CLG .4% CONDNS DB=>MWB 1,  42.93, -78.73,  -5.00, 215.00
2,1, 7,21, 0, 1, 0.00,60.00,SummerDesignDay
8,19.36840579326866
11,553452043.7719594
123,681760252.6182903
2,1, 7,21, 0, 1, 0.00,60.00,SummerDesignDay
545,29.243998782671505
2,1, 7,21, 0, 2, 0.00,60.00,SummerDesignDay
8,19.25226217922265
11,541165537.5228537
123,394603754.7184301
2,1, 7,21, 0, 2, 0.00,60.00,SummerDesignDay
545,29.812469907586008
2,1, 7,21, 0, 3, 0.00,60.00,SummerDesignDay
8,19.164819553782637
11,542756143.4221628
123,383102061.4267604
2,1, 7,21, 0, 3, 0.00,60.00,SummerDesignDay
545,29.943522442670845
2,1, 7,21, 0, 4, 0.00,60.00,SummerDesignDay
8,19.0770792448193
11,549934132.1695564
123,383102061.4267604
2,1, 7,21, 0, 4, 0.00,60.00,SummerDesignDay
545,29.956642953289877
2,1, 7,21, 0, 5, 0.00,60.00,SummerDesignDay
8,19.018427637799467
11,551480258.4879953
123,383102061.4267604
2,1, 7,21, 0, 5, 0.00,60.00,SummerDesignDay
545,29.96401988682022
2,1, 7,21, 0, 6, 0.00,60.00,SummerDesignDay
8,19.0770792448193
11,669661332.0431018
123,383102061.4267604
2,1, 7,21, 0, 6, 0.00,60.00,SummerDesignDay
545,26.376699658239965
2,1, 7,21, 0, 7, 0.00,60.00,SummerDesignDay
8,19.281346189070228
11,795088380.9806703
123,684663667.9329627
2,1, 7,21, 0, 7, 0.00,60.00,SummerDesignDay
545,24.261383270940955
2,1, 7,21, 0, 8, 0.00,60.00,SummerDesignDay
8,19.770887505670989
11,859033035.6108523
123,761228971.1880082
2,1, 7,21, 0, 8, 0.00,60.00,SummerDesignDay
545,23.978079285915649
2,1, 7,21, 0, 9, 0.00,60.00,SummerDesignDay
8,20.30732185289352
11,870748658.5262061
123,759214891.4465909
2,1, 7,21, 0, 9, 0.00,60.00,SummerDesignDay
545,23.974966307396678
2,1, 7,21, 0,10, 0.00,60.00,SummerDesignDay
8,20.778037156782458
11,878883139.1280488
123,737407181.0500549
2,1, 7,21, 0,10, 0.00,60.00,SummerDesignDay
545,23.97297964721749
2,1, 7,21, 0,11, 0.00,60.00,SummerDesignDay
8,21.186337137460165
11,890339196.3538667
123,734631831.5383396
2,1, 7,21, 0,11, 0.00,60.00,SummerDesignDay
545,23.971769533523426
2,1, 7,21, 0,12, 0.00,60.00,SummerDesignDay
8,21.45495938709981
11,905804550.3124344
123,737433981.3755465
2,1, 7,21, 0,12, 0.00,60.00,SummerDesignDay
545,23.97159460739315
2,1, 7,21, 0,13, 0.00,60.00,SummerDesignDay
8,21.667839996742449
11,910378238.1103498
123,734659901.4143298
2,1, 7,21, 0,13, 0.00,60.00,SummerDesignDay
545,23.971580692747386
2,1, 7,21, 0,14, 0.00,60.00,SummerDesignDay
8,21.799990419629109
11,914100225.2472385
123,713298815.9257779
2,1, 7,21, 0,14, 0.00,60.00,SummerDesignDay
545,23.971449868723665
2,1, 7,21, 0,15, 0.00,60.00,SummerDesignDay
8,21.799990419629109
11,910668163.7062618
123,709643175.6354599
2,1, 7,21, 0,15, 0.00,60.00,SummerDesignDay
545,23.971309643086259
2,1, 7,21, 0,16, 0.00,60.00,SummerDesignDay
8,21.641326796728476
11,903500841.8354646
123,709624198.7405827
2,1, 7,21, 0,16, 0.00,60.00,SummerDesignDay
545,23.97124646226695
2,1, 7,21, 0,17, 0.00,60.00,SummerDesignDay
8,21.42822317147698
11,892376092.0447568
123,710241357.7601991
2,1, 7,21, 0,17, 0.00,60.00,SummerDesignDay
545,23.97123565165843
2,1, 7,21, 0,18, 0.00,60.00,SummerDesignDay
8,21.15931786227956
11,887755949.3874103
123,733994555.8821162
2,1, 7,21, 0,18, 0.00,60.00,SummerDesignDay
545,23.971371497583623
2,1, 7,21, 0,19, 0.00,60.00,SummerDesignDay
8,20.750583661392644
11,878992529.9870297
123,759221036.6498945
2,1, 7,21, 0,19, 0.00,60.00,SummerDesignDay
545,23.97176533307608
2,1, 7,21, 0,20, 0.00,60.00,SummerDesignDay
8,20.446661088459409
11,859024851.4474161
123,761216884.7674683
2,1, 7,21, 0,20, 0.00,60.00,SummerDesignDay
545,23.972407272947028
2,1, 7,21, 0,21, 0.00,60.00,SummerDesignDay
8,20.19530361990708
11,871688932.49274
123,757119141.5786476
2,1, 7,21, 0,21, 0.00,60.00,SummerDesignDay
545,23.972852997700778
2,1, 7,21, 0,22, 0.00,60.00,SummerDesignDay
8,19.941485234887624
11,865037929.5201695
123,759258844.7643359
2,1, 7,21, 0,22, 0.00,60.00,SummerDesignDay
545,23.973095567545895
2,1, 7,21, 0,23, 0.00,60.00,SummerDesignDay
8,19.7423381019073
11,843313805.8440635
123,737460898.6607964
2,1, 7,21, 0,23, 0.00,60.00,SummerDesignDay
545,23.973262843190918
2,1, 7,21, 0,24, 0.00,60.00,SummerDesignDay
8,19.54165603023991
11,810944043.7748907
123,701249618.0623821
2,1, 7,21, 0,24, 0.00,60.00,SummerDesignDay
545,23.9734068867486
3,1, 7,21, 0,SummerDesignDay
546,60.926894943893767,55.37838769028428, 1,10,72.2676515562878, 6,10
4,1, 7
7,25.312875000000003,21.0,21, 5,60,30.3,21,14,60
1,BUFFALO NIAGARA INTL AP ANN CLG .4% CONDNS WB=>MDB 1,  42.93, -78.73,  -5.00, 215.00
2,1, 7,21, 0, 1, 0.00,60.00,SummerDesignDay
8,19.615996954992807
11,543579411.5676349
123,681760252.6182903
2,1, 7,21, 0, 1, 0.00,60.00,SummerDesignDay
545,28.748545521385187
2,1, 7,21, 0, 2, 0.00,60.00,SummerDesignDay
8,19.243988037109376
11,517100611.95602926
123,407441497.0306221
2,1, 7,21, 0, 2, 0.00,60.00,SummerDesignDay
545,29.662106549593518
2,1, 7,21, 0, 3, 0.00,60.00,SummerDesignDay
8,18.96499632356402
11,510710996.3344089
123,383102061.4267604
2,1, 7,21, 0, 3, 0.00,60.00,SummerDesignDay
545,29.89800667447917
2,1, 7,21, 0, 4, 0.00,60.00,SummerDesignDay
8,18.685989379882814
11,516161538.51176497
123,383102061.4267604
2,1, 7,21, 0, 4, 0.00,60.00,SummerDesignDay
545,29.929603170975786
2,1, 7,21, 0, 5, 0.00,60.00,SummerDesignDay
8,18.49999810986028
11,517170545.2278083
123,383102061.4267604
2,1, 7,21, 0, 5, 0.00,60.00,SummerDesignDay
545,29.94811633949455
2,1, 7,21, 0, 6, 0.00,60.00,SummerDesignDay
8,18.685989379882814
11,643555328.6266985
123,383102061.4267604
2,1, 7,21, 0, 6, 0.00,60.00,SummerDesignDay
545,26.376855665807164
2,1, 7,21, 0, 7, 0.00,60.00,SummerDesignDay
8,19.336990356445314
11,773875603.9618472
123,684663754.7357698
2,1, 7,21, 0, 7, 0.00,60.00,SummerDesignDay
545,24.276614906194486
2,1, 7,21, 0, 8, 0.00,60.00,SummerDesignDay
8,20.917992548817627
11,847343502.3028962
123,761228971.3673425
2,1, 7,21, 0, 8, 0.00,60.00,SummerDesignDay
545,23.97847221641309
2,1, 7,21, 0, 9, 0.00,60.00,SummerDesignDay
8,22.420023807696297
11,871625831.942951
123,759214891.64765
2,1, 7,21, 0, 9, 0.00,60.00,SummerDesignDay
545,23.97541137763263
2,1, 7,21, 0,10, 0.00,60.00,SummerDesignDay
8,22.854695006230427
11,882697294.7680467
123,737407181.2958133
2,1, 7,21, 0,10, 0.00,60.00,SummerDesignDay
545,23.973272052003666
2,1, 7,21, 0,11, 0.00,60.00,SummerDesignDay
8,23.232104587122938
11,894679701.297413
123,734631831.7957683
2,1, 7,21, 0,11, 0.00,60.00,SummerDesignDay
545,23.971763908234477
2,1, 7,21, 0,12, 0.00,60.00,SummerDesignDay
8,23.480593542408348
11,909650932.9015671
123,737433981.6142283
2,1, 7,21, 0,12, 0.00,60.00,SummerDesignDay
545,23.971554302796439
2,1, 7,21, 0,13, 0.00,60.00,SummerDesignDay
8,23.677626430315248
11,914192648.1574067
123,734659901.6642907
2,1, 7,21, 0,13, 0.00,60.00,SummerDesignDay
545,23.971566661021244
2,1, 7,21, 0,14, 0.00,60.00,SummerDesignDay
8,23.799986320868798
11,918102204.8809482
123,713298816.2106452
2,1, 7,21, 0,14, 0.00,60.00,SummerDesignDay
545,23.971422939490325
2,1, 7,21, 0,15, 0.00,60.00,SummerDesignDay
8,23.799986320868798
11,914624355.0807871
123,709643175.9514885
2,1, 7,21, 0,15, 0.00,60.00,SummerDesignDay
545,23.97125652738309
2,1, 7,21, 0,16, 0.00,60.00,SummerDesignDay
8,23.653081835774505
11,907264416.0967175
123,709624199.0636017
2,1, 7,21, 0,16, 0.00,60.00,SummerDesignDay
545,23.971181667143815
2,1, 7,21, 0,17, 0.00,60.00,SummerDesignDay
8,23.4558543827806
11,896015388.6008937
123,710241246.3037927
2,1, 7,21, 0,17, 0.00,60.00,SummerDesignDay
545,23.971171521755964
2,1, 7,21, 0,18, 0.00,60.00,SummerDesignDay
8,23.207119318496696
11,891199292.9411408
123,733994661.1768086
2,1, 7,21, 0,18, 0.00,60.00,SummerDesignDay
545,23.97129955951051
2,1, 7,21, 0,19, 0.00,60.00,SummerDesignDay
8,22.82933132300861
11,881957752.8408144
123,759221036.8142393
2,1, 7,21, 0,19, 0.00,60.00,SummerDesignDay
545,23.97167846294121
2,1, 7,21, 0,20, 0.00,60.00,SummerDesignDay
8,22.548645905899027
11,861404274.2903042
123,761216884.9229436
2,1, 7,21, 0,20, 0.00,60.00,SummerDesignDay
545,23.972322689610157
2,1, 7,21, 0,21, 0.00,60.00,SummerDesignDay
8,22.312987690310977
11,874384366.7396088
123,757119141.7573006
2,1, 7,21, 0,21, 0.00,60.00,SummerDesignDay
545,23.97280930202982
2,1, 7,21, 0,22, 0.00,60.00,SummerDesignDay
8,21.475995587251039
11,861574862.9831636
123,759258844.9184605
2,1, 7,21, 0,22, 0.00,60.00,SummerDesignDay
545,23.97313584735046
2,1, 7,21, 0,23, 0.00,60.00,SummerDesignDay
8,20.824995071347869
11,834381806.738644
123,737460898.8491345
2,1, 7,21, 0,23, 0.00,60.00,SummerDesignDay
545,23.973249172718135
2,1, 7,21, 0,24, 0.00,60.00,SummerDesignDay
8,20.173995840857065
11,796624731.6994461
123,701249534.7890564
2,1, 7,21, 0,24, 0.00,60.00,SummerDesignDay
545,23.973447585658783
3,1, 7,21, 0,SummerDesignDay
546,64.6809413064148,58.99043836388892, 8,60,77.33603706219626, 6,10
4,1, 7
7,22.812875000000003,18.5,21, 5,60,27.8,21,14,60
1,BUFFALO NIAGARA INTL AP ANN HTG 99.6% CONDNS DB 1,  42.93, -78.73,  -5.00, 215.00
2,1, 1,21, 0, 1, 0.00,60.00,WinterDesignDay
8,-16.3
11,114765794.49537994
123,1619481815.8949385
2,1, 1,21, 0, 1, 0.00,60.00,WinterDesignDay
545,21.00000000000001
2,1, 1,21, 0, 2, 0.00,60.00,WinterDesignDay
8,-16.3
11,91749701.58632213
123,1248963269.0309468
2,1, 1,21, 0, 2, 0.00,60.00,WinterDesignDay
545,20.999999999999976
2,1, 1,21, 0, 3, 0.00,60.00,WinterDesignDay
8,-16.3
11,91749742.09325499
123,1240243628.4487665
2,1, 1,21, 0, 3, 0.00,60.00,WinterDesignDay
545,20.999999999999987
2,1, 1,21, 0, 4, 0.00,60.00,WinterDesignDay
8,-16.3
11,91749782.25871209
123,1240243628.8491894
2,1, 1,21, 0, 4, 0.00,60.00,WinterDesignDay
545,21.000000000000026
2,1, 1,21, 0, 5, 0.00,60.00,WinterDesignDay
8,-16.3
11,91749822.08635913
123,1240243629.2059434
2,1, 1,21, 0, 5, 0.00,60.00,WinterDesignDay
545,20.999999999999984
2,1, 1,21, 0, 6, 0.00,60.00,WinterDesignDay
8,-16.3
11,91935835.3054837
123,1240243629.5238562
2,1, 1,21, 0, 6, 0.00,60.00,WinterDesignDay
545,20.999999999999994
2,1, 1,21, 0, 7, 0.00,60.00,WinterDesignDay
8,-16.3
11,105892628.99672786
123,1617155484.7280203
2,1, 1,21, 0, 7, 0.00,60.00,WinterDesignDay
545,21.000000000000026
2,1, 1,21, 0, 8, 0.00,60.00,WinterDesignDay
8,-16.3
11,105892669.44138125
123,1617155624.74621
2,1, 1,21, 0, 8, 0.00,60.00,WinterDesignDay
545,21.000000000000015
2,1, 1,21, 0, 9, 0.00,60.00,WinterDesignDay
8,-16.3
11,66278161.23728826
123,1617155764.2050906
2,1, 1,21, 0, 9, 0.00,60.00,WinterDesignDay
545,21.000000000000008
2,1, 1,21, 0,10, 0.00,60.00,WinterDesignDay
8,-16.3
11,124843132.03094885
123,1691016687.369729
2,1, 1,21, 0,10, 0.00,60.00,WinterDesignDay
545,21.000000000000005
2,1, 1,21, 0,11, 0.00,60.00,WinterDesignDay
8,-16.3
11,117760503.85076899
123,1685832845.7813688
2,1, 1,21, 0,11, 0.00,60.00,WinterDesignDay
545,20.999999999999976
2,1, 1,21, 0,12, 0.00,60.00,WinterDesignDay
8,-16.3
11,123660497.13765997
123,1699859143.0316253
2,1, 1,21, 0,12, 0.00,60.00,WinterDesignDay
545,20.999999999999987
2,1, 1,21, 0,13, 0.00,60.00,WinterDesignDay
8,-16.3
11,123274132.39314035
123,1699859143.1734353
2,1, 1,21, 0,13, 0.00,60.00,WinterDesignDay
545,20.999999999999998
2,1, 1,21, 0,14, 0.00,60.00,WinterDesignDay
8,-16.3
11,117554166.67833455
123,1685835287.765775
2,1, 1,21, 0,14, 0.00,60.00,WinterDesignDay
545,20.999999999999998
2,1, 1,21, 0,15, 0.00,60.00,WinterDesignDay
8,-16.3
11,112070917.42608558
123,1671072609.4658318
2,1, 1,21, 0,15, 0.00,60.00,WinterDesignDay
545,20.999999999999998
2,1, 1,21, 0,16, 0.00,60.00,WinterDesignDay
8,-16.3
11,111829634.84671279
123,1677158844.176308
2,1, 1,21, 0,16, 0.00,60.00,WinterDesignDay
545,20.999999999999998
2,1, 1,21, 0,17, 0.00,60.00,WinterDesignDay
8,-16.3
11,106532214.71504198
123,1664033388.221229
2,1, 1,21, 0,17, 0.00,60.00,WinterDesignDay
545,21.000000000000005
2,1, 1,21, 0,18, 0.00,60.00,WinterDesignDay
8,-16.3
11,151748297.0635245
123,1671071886.2539476
2,1, 1,21, 0,18, 0.00,60.00,WinterDesignDay
545,20.999999999999998
2,1, 1,21, 0,19, 0.00,60.00,WinterDesignDay
8,-16.3
11,171513707.25616775
123,1699859143.7526355
2,1, 1,21, 0,19, 0.00,60.00,WinterDesignDay
545,20.999999999999998
2,1, 1,21, 0,20, 0.00,60.00,WinterDesignDay
8,-16.3
11,172483821.88840197
123,1699859143.8158727
2,1, 1,21, 0,20, 0.00,60.00,WinterDesignDay
545,21.00000000000003
2,1, 1,21, 0,21, 0.00,60.00,WinterDesignDay
8,-16.3
11,164514740.393458
123,1699859143.8722158
2,1, 1,21, 0,21, 0.00,60.00,WinterDesignDay
545,20.99999999999999
2,1, 1,21, 0,22, 0.00,60.00,WinterDesignDay
8,-16.3
11,170775817.91566808
123,1699859143.922451
2,1, 1,21, 0,22, 0.00,60.00,WinterDesignDay
545,20.999999999999994
2,1, 1,21, 0,23, 0.00,60.00,WinterDesignDay
8,-16.3
11,151776958.25751997
123,1685459917.6599973
2,1, 1,21, 0,23, 0.00,60.00,WinterDesignDay
545,21.0
2,1, 1,21, 0,24, 0.00,60.00,WinterDesignDay
8,-16.3
11,140242881.40316446
123,1639117923.9110013
2,1, 1,21, 0,24, 0.00,60.00,WinterDesignDay
545,21.000000000000033
3,1, 1,21, 0,WinterDesignDay
546,5.8900924366510349,5.890092235236944, 1,60,5.890092580518239, 2,60
4,1, 1
7,-16.300000000000009,-16.3,21, 1,60,-16.3,21, 1,60
End of Data
 Number of Records Written=         294
