Program Version,EnergyPlus, Version 9.1.0-fafb9d5652, YMD=2020.03.24 18:14
1,5,Environment Title[],Latitude[deg],Longitude[deg],Time Zone[],Elevation[m]
2,8,Day of Simulation[],Month[],Day of Month[],DST Indicator[1=yes 0=no],Hour[],StartMinute[],EndMinute[],DayType
3,5,Cumulative Day of Simulation[],Month[],Day of Month[],DST Indicator[1=yes 0=no],DayType  ! When Daily Report Variables Requested
4,2,Cumulative Days of Simulation[],Month[]  ! When Monthly Report Variables Requested
5,1,Cumulative Days of Simulation[] ! When Run Period Report Variables Requested
6,1,Calendar Year of Simulation[] ! When Annual Report Variables Requested
7,9,Environment,Site Outdoor Air Drybulb Temperature [C] !Monthly [Value,Min,Day,Hour,Minute,Max,Day,Hour,Minute]
8,1,Environment,Site Outdoor Air Wetbulb Temperature [C] !TimeStep
545,1,BUILDING STORY 1 THERMALZONE,Zone Air Temperature [C] !Hourly
546,7,BUILDING STORY 1 THERMALZONE,Zone Air Relative Humidity [%] !Daily [Value,Min,Hour,Minute,Max,Hour,Minute]
11,1,Electricity:Facility [J] !TimeStep
123,1,Gas:Facility [J] !TimeStep
End of Data Dictionary
1,BUFFALO NIAGARA INTL AP ANN CLG .4% CONDNS DB=>MWB 1,  42.93, -78.73,  -5.00, 215.00
2,1, 7,21, 0, 1, 0.00,15.00,SummerDesignDay
8,19.498447168617639
11,134764002.8420205
123,170441791.10265679
2,1, 7,21, 0, 1,15.00,30.00,SummerDesignDay
8,19.455172187031058
11,136569861.83368246
123,173573581.26209209
2,1, 7,21, 0, 1,30.00,45.00,SummerDesignDay
8,19.4118249624254
11,138531712.2256085
123,173055556.6923736
2,1, 7,21, 0, 1,45.00,60.00,SummerDesignDay
8,19.36840579326866
11,140151863.49704615
123,170426996.6284305
2,1, 7,21, 0, 1, 0.00,60.00,SummerDesignDay
545,29.383543312714978
2,1, 7,21, 0, 2, 0.00,15.00,SummerDesignDay
8,19.339418379179575
11,135634751.6990528
123,107286507.23665416
2,1, 7,21, 0, 2,15.00,30.00,SummerDesignDay
8,19.310398399050294
11,135964097.8665276
123,95775515.3566901
2,1, 7,21, 0, 2,30.00,45.00,SummerDesignDay
8,19.281346189070228
11,136304111.4203224
123,95775515.3566901
2,1, 7,21, 0, 2,45.00,60.00,SummerDesignDay
8,19.25226217922265
11,136673337.38271047
123,95775515.3566901
2,1, 7,21, 0, 2, 0.00,60.00,SummerDesignDay
545,29.9816148026762
2,1, 7,21, 0, 3, 0.00,15.00,SummerDesignDay
8,19.230428408408469
11,136678037.70243163
123,95775515.3566901
2,1, 7,21, 0, 3,15.00,30.00,SummerDesignDay
8,19.208577345747888
11,136818110.78730244
123,95775515.3566901
2,1, 7,21, 0, 3,30.00,45.00,SummerDesignDay
8,19.18670730756924
11,137103925.76215185
123,95775515.3566901
2,1, 7,21, 0, 3,45.00,60.00,SummerDesignDay
8,19.164819553782637
11,136983983.00728099
123,95775515.3566901
2,1, 7,21, 0, 3, 0.00,60.00,SummerDesignDay
545,29.985865247002697
2,1, 7,21, 0, 4, 0.00,15.00,SummerDesignDay
8,19.14291293517813
11,137028821.0756876
123,95775515.3566901
2,1, 7,21, 0, 4,15.00,30.00,SummerDesignDay
8,19.12098348580758
11,137241715.54568354
123,95775515.3566901
2,1, 7,21, 0, 4,30.00,45.00,SummerDesignDay
8,19.099040706060096
11,137068915.25092603
123,95775515.3566901
2,1, 7,21, 0, 4,45.00,60.00,SummerDesignDay
8,19.0770792448193
11,137069384.21591486
123,95775515.3566901
2,1, 7,21, 0, 4, 0.00,60.00,SummerDesignDay
545,29.985711324138369
2,1, 7,21, 0, 5, 0.00,15.00,SummerDesignDay
8,19.06243010115264
11,137137728.60776434
123,95775515.3566901
2,1, 7,21, 0, 5,15.00,30.00,SummerDesignDay
8,19.047767571267707
11,137383140.70510725
123,95775515.3566901
2,1, 7,21, 0, 5,30.00,45.00,SummerDesignDay
8,19.033101337600248
11,137248073.40472818
123,95775515.3566901
2,1, 7,21, 0, 5,45.00,60.00,SummerDesignDay
8,19.018427637799467
11,130974044.0657227
123,95775515.3566901
2,1, 7,21, 0, 5, 0.00,60.00,SummerDesignDay
545,29.985461661614939
2,1, 7,21, 0, 6, 0.00,15.00,SummerDesignDay
8,19.033101337600248
11,173977730.35970689
123,95775515.3566901
2,1, 7,21, 0, 6,15.00,30.00,SummerDesignDay
8,19.047767571267707
11,176285166.46848846
123,95775515.3566901
2,1, 7,21, 0, 6,30.00,45.00,SummerDesignDay
8,19.06243010115264
11,169876453.89835064
123,95775515.3566901
2,1, 7,21, 0, 6,45.00,60.00,SummerDesignDay
8,19.0770792448193
11,165856759.5731936
123,95775515.3566901
2,1, 7,21, 0, 6, 0.00,60.00,SummerDesignDay
545,26.12952313687731
2,1, 7,21, 0, 7, 0.00,15.00,SummerDesignDay
8,19.12829527807298
11,185915030.61614967
123,174534823.0219735
2,1, 7,21, 0, 7,15.00,30.00,SummerDesignDay
8,19.179411890099734
11,179223650.73302315
123,171717494.41921217
2,1, 7,21, 0, 7,30.00,45.00,SummerDesignDay
8,19.230428408408469
11,182471432.51356823
123,169234817.59693337
2,1, 7,21, 0, 7,45.00,60.00,SummerDesignDay
8,19.281346189070228
11,179119002.1452709
123,169229353.96296687
2,1, 7,21, 0, 7, 0.00,60.00,SummerDesignDay
545,24.0488601482468
2,1, 7,21, 0, 8, 0.00,15.00,SummerDesignDay
8,19.404591898480026
11,196597440.9682114
123,194381710.43951798
2,1, 7,21, 0, 8,15.00,30.00,SummerDesignDay
8,19.527259399674614
11,197988469.8664155
123,189739103.75017349
2,1, 7,21, 0, 8,30.00,45.00,SummerDesignDay
8,19.649352983497768
11,199295537.06279803
123,182731889.1985051
2,1, 7,21, 0, 8,45.00,60.00,SummerDesignDay
8,19.770887505670989
11,200609314.06026394
123,194371791.9435942
2,1, 7,21, 0, 8, 0.00,60.00,SummerDesignDay
545,23.980001763508974
2,1, 7,21, 0, 9, 0.00,15.00,SummerDesignDay
8,19.906033007607879
11,200875275.29050065
123,193978898.87625886
2,1, 7,21, 0, 9,15.00,30.00,SummerDesignDay
8,20.04048914686797
11,202354845.57432444
123,193984822.99638368
2,1, 7,21, 0, 9,30.00,45.00,SummerDesignDay
8,20.174247070804034
11,203645648.3195937
123,177301270.36353297
2,1, 7,21, 0, 9,45.00,60.00,SummerDesignDay
8,20.30732185289352
11,205332890.05589266
123,193975440.28158964
2,1, 7,21, 0, 9, 0.00,60.00,SummerDesignDay
545,23.97999553541945
2,1, 7,21, 0,10, 0.00,15.00,SummerDesignDay
8,20.425808927886167
11,203655609.10294489
123,189897550.34057088
2,1, 7,21, 0,10,15.00,30.00,SummerDesignDay
8,20.54375394491567
11,204969992.57854233
123,178817759.79015029
2,1, 7,21, 0,10,30.00,45.00,SummerDesignDay
8,20.661161978641567
11,206199907.48657618
123,193103584.63250543
2,1, 7,21, 0,10,45.00,60.00,SummerDesignDay
8,20.778037156782458
11,207383084.03032763
123,175618565.35396726
2,1, 7,21, 0,10, 0.00,60.00,SummerDesignDay
545,23.97999771280265
2,1, 7,21, 0,11, 0.00,15.00,SummerDesignDay
8,20.880723789184299
11,207050825.5468141
123,188075950.5163967
2,1, 7,21, 0,11,15.00,30.00,SummerDesignDay
8,20.982997220428218
11,208147989.84981675
123,179252747.4951086
2,1, 7,21, 0,11,30.00,45.00,SummerDesignDay
8,21.084868854932993
11,209110325.1886489
123,178092642.89529003
2,1, 7,21, 0,11,45.00,60.00,SummerDesignDay
8,21.186337137460165
11,210251723.2644069
123,189226035.51672466
2,1, 7,21, 0,11, 0.00,60.00,SummerDesignDay
545,23.980130074831466
2,1, 7,21, 0,12, 0.00,15.00,SummerDesignDay
8,21.25375761031924
11,212158936.92289416
123,175584996.12869407
2,1, 7,21, 0,12,15.00,30.00,SummerDesignDay
8,21.321001301623704
11,213007776.3815296
123,193119913.9537617
2,1, 7,21, 0,12,30.00,45.00,SummerDesignDay
8,21.388067863863197
11,213697615.98194704
123,177827363.10862179
2,1, 7,21, 0,12,45.00,60.00,SummerDesignDay
8,21.45495938709981
11,214510660.25816483
123,190876396.75036783
2,1, 7,21, 0,12, 0.00,60.00,SummerDesignDay
545,23.980300444436236
2,1, 7,21, 0,13, 0.00,15.00,SummerDesignDay
8,21.50834731769637
11,213643154.19619576
123,174660280.09178687
2,1, 7,21, 0,13,15.00,30.00,SummerDesignDay
8,21.561624484493195
11,214555038.69550873
123,192659045.8415536
2,1, 7,21, 0,13,30.00,45.00,SummerDesignDay
8,21.614785322779669
11,215258297.51830975
123,174666701.96947546
2,1, 7,21, 0,13,45.00,60.00,SummerDesignDay
8,21.667839996742449
11,216070479.3297011
123,192662544.02543248
2,1, 7,21, 0,13, 0.00,60.00,SummerDesignDay
545,23.980282448722489
2,1, 7,21, 0,14, 0.00,15.00,SummerDesignDay
8,21.700944669131724
11,215213497.44358764
123,173702693.70317
2,1, 7,21, 0,14,15.00,30.00,SummerDesignDay
8,21.734001168312525
11,215751621.47239057
123,174070368.46748109
2,1, 7,21, 0,14,30.00,45.00,SummerDesignDay
8,21.76701969568146
11,216313105.79286725
123,191788358.62669165
2,1, 7,21, 0,14,45.00,60.00,SummerDesignDay
8,21.799990419629109
11,216866154.27749039
123,173700292.18115828
2,1, 7,21, 0,14, 0.00,60.00,SummerDesignDay
545,23.980131547747378
2,1, 7,21, 0,15, 0.00,15.00,SummerDesignDay
8,21.799990419629109
11,215574073.43723069
123,172658176.4963027
2,1, 7,21, 0,15,15.00,30.00,SummerDesignDay
8,21.799990419629109
11,215541734.93441377
123,190075919.42399556
2,1, 7,21, 0,15,30.00,45.00,SummerDesignDay
8,21.799990419629109
11,215559257.50859104
123,174261132.35184587
2,1, 7,21, 0,15,45.00,60.00,SummerDesignDay
8,21.799990419629109
11,215590056.90822099
123,172667676.35343714
2,1, 7,21, 0,15, 0.00,60.00,SummerDesignDay
545,23.980027970275687
2,1, 7,21, 0,16, 0.00,15.00,SummerDesignDay
8,21.76041850322365
11,215149973.29792325
123,178303644.0166058
2,1, 7,21, 0,16,15.00,30.00,SummerDesignDay
8,21.720784448671354
11,214655132.22483409
123,186015584.5718825
2,1, 7,21, 0,16,30.00,45.00,SummerDesignDay
8,21.681084832383254
11,214026136.4546992
123,172676889.2764767
2,1, 7,21, 0,16,45.00,60.00,SummerDesignDay
8,21.641326796728476
11,213361790.8289517
123,172662440.4877633
2,1, 7,21, 0,16, 0.00,60.00,SummerDesignDay
545,23.98001704678279
2,1, 7,21, 0,17, 0.00,15.00,SummerDesignDay
8,21.588221131429309
11,212595746.43191729
123,184834940.0760135
2,1, 7,21, 0,17,15.00,30.00,SummerDesignDay
8,21.53499969964235
11,214470361.4838414
123,179491528.4765542
2,1, 7,21, 0,17,30.00,45.00,SummerDesignDay
8,21.481667371722027
11,213710465.27774606
123,172671810.13252265
2,1, 7,21, 0,17,45.00,60.00,SummerDesignDay
8,21.42822317147698
11,212684005.54350374
123,173070345.73701559
2,1, 7,21, 0,17, 0.00,60.00,SummerDesignDay
545,23.980033226559408
2,1, 7,21, 0,18, 0.00,15.00,SummerDesignDay
8,21.36126189357475
11,214448631.6097361
123,192267523.58243258
2,1, 7,21, 0,18,15.00,30.00,SummerDesignDay
8,21.294124428217594
11,213493425.1151805
123,174666061.43719069
2,1, 7,21, 0,18,30.00,45.00,SummerDesignDay
8,21.22680984257423
11,211978495.13132028
123,192662195.11334232
2,1, 7,21, 0,18,45.00,60.00,SummerDesignDay
8,21.15931786227956
11,213540516.28943888
123,174672341.32912667
2,1, 7,21, 0,18, 0.00,60.00,SummerDesignDay
545,23.98026354093663
2,1, 7,21, 0,19, 0.00,15.00,SummerDesignDay
8,21.057742794759656
11,214411359.73853553
123,193980182.46374078
2,1, 7,21, 0,19,15.00,30.00,SummerDesignDay
8,20.95576719398477
11,213696028.23871557
123,191160084.36264415
2,1, 7,21, 0,19,30.00,45.00,SummerDesignDay
8,20.853380308726839
11,212037082.46824868
123,180122064.48284949
2,1, 7,21, 0,19,45.00,60.00,SummerDesignDay
8,20.750583661392644
11,214123670.7843836
123,193976775.89358954
2,1, 7,21, 0,19, 0.00,60.00,SummerDesignDay
545,23.98108887402629
2,1, 7,21, 0,20, 0.00,15.00,SummerDesignDay
8,20.674937724862624
11,215364091.76059244
123,194379350.64950244
2,1, 7,21, 0,20,15.00,30.00,SummerDesignDay
8,20.599073217758077
11,214211869.80843015
123,194382685.23282249
2,1, 7,21, 0,20,30.00,45.00,SummerDesignDay
8,20.522979916101986
11,222942108.21906293
123,184711761.99192269
2,1, 7,21, 0,20,45.00,60.00,SummerDesignDay
8,20.446661088459409
11,221897273.0895704
123,187754292.8630633
2,1, 7,21, 0,20, 0.00,60.00,SummerDesignDay
545,23.98132668872924
2,1, 7,21, 0,21, 0.00,15.00,SummerDesignDay
8,20.38404830308516
11,218401297.5211622
123,193559817.1084621
2,1, 7,21, 0,21,15.00,30.00,SummerDesignDay
8,20.321288186392434
11,217333343.57233466
123,187273787.2541044
2,1, 7,21, 0,21,30.00,45.00,SummerDesignDay
8,20.258374971249056
11,216759113.7444399
123,182751854.81992156
2,1, 7,21, 0,21,45.00,60.00,SummerDesignDay
8,20.19530361990708
11,215736792.99211503
123,193563300.90180613
2,1, 7,21, 0,21, 0.00,60.00,SummerDesignDay
545,23.981544170449334
2,1, 7,21, 0,22, 0.00,15.00,SummerDesignDay
8,20.13208244849811
11,216610492.339865
123,183284169.3440485
2,1, 7,21, 0,22,15.00,30.00,SummerDesignDay
8,20.068702801189454
11,215842129.59477226
123,187988998.83443428
2,1, 7,21, 0,22,30.00,45.00,SummerDesignDay
8,20.00517186709804
11,215073047.26718805
123,193978716.723479
2,1, 7,21, 0,22,45.00,60.00,SummerDesignDay
8,19.941485234887624
11,214102463.10586453
123,193984653.60363216
2,1, 7,21, 0,22, 0.00,60.00,SummerDesignDay
545,23.981679064416477
2,1, 7,21, 0,23, 0.00,15.00,SummerDesignDay
8,19.891841194221017
11,210736380.73354779
123,175594037.73798219
2,1, 7,21, 0,23,15.00,30.00,SummerDesignDay
8,19.842102082714037
11,210136077.80155925
123,193124969.8704844
2,1, 7,21, 0,23,30.00,45.00,SummerDesignDay
8,19.792267923486706
11,209552038.0920855
123,175592270.52856649
2,1, 7,21, 0,23,45.00,60.00,SummerDesignDay
8,19.7423381019073
11,208805653.16527895
123,193123981.68473415
2,1, 7,21, 0,23, 0.00,60.00,SummerDesignDay
545,23.98178744716559
2,1, 7,21, 0,24, 0.00,15.00,SummerDesignDay
8,19.69231210730981
11,202710352.7012868
123,171592843.57142795
2,1, 7,21, 0,24,15.00,30.00,SummerDesignDay
8,19.64219032081547
11,201853669.38456706
123,171581364.74798513
2,1, 7,21, 0,24,30.00,45.00,SummerDesignDay
8,19.591971502420358
11,201518765.5583494
123,173121533.23816893
2,1, 7,21, 0,24,45.00,60.00,SummerDesignDay
8,19.54165603023991
11,200851907.24796898
123,184774132.8404721
2,1, 7,21, 0,24, 0.00,60.00,SummerDesignDay
545,23.981879106735815
3,1, 7,21, 0,SummerDesignDay
546,61.261371281139769,54.527182818006917, 1, 8,75.38936483913145, 6, 5
4,1, 7
7,25.312875000000007,21.0,21, 5,60,30.3,21,14,60
1,BUFFALO NIAGARA INTL AP ANN CLG .4% CONDNS WB=>MDB 1,  42.93, -78.73,  -5.00, 215.00
2,1, 7,21, 0, 1, 0.00,15.00,SummerDesignDay
8,20.03448486328125
11,134852169.09124709
123,170441218.29889424
2,1, 7,21, 0, 1,15.00,30.00,SummerDesignDay
8,19.894989013671876
11,133742123.35170529
123,173189390.93324194
2,1, 7,21, 0, 1,30.00,45.00,SummerDesignDay
8,19.7554931640625
11,133636463.5082923
123,173118357.06063513
2,1, 7,21, 0, 1,45.00,60.00,SummerDesignDay
8,19.615996954992807
11,132640766.09697941
123,171871344.59214757
2,1, 7,21, 0, 1, 0.00,60.00,SummerDesignDay
545,28.89454358782946
2,1, 7,21, 0, 2, 0.00,15.00,SummerDesignDay
8,19.522994995117189
11,128214745.04451868
123,107286566.75468633
2,1, 7,21, 0, 2,15.00,30.00,SummerDesignDay
8,19.42999267578125
11,126783760.59543696
123,95775515.3566901
2,1, 7,21, 0, 2,30.00,45.00,SummerDesignDay
8,19.336990356445314
11,127944319.72385173
123,95775515.3566901
2,1, 7,21, 0, 2,45.00,60.00,SummerDesignDay
8,19.243988037109376
11,126969733.31923524
123,95775515.3566901
2,1, 7,21, 0, 2, 0.00,60.00,SummerDesignDay
545,29.94402840737851
2,1, 7,21, 0, 3, 0.00,15.00,SummerDesignDay
8,19.174240112304689
11,128137691.20371656
123,95775515.3566901
2,1, 7,21, 0, 3,15.00,30.00,SummerDesignDay
8,19.1044921875
11,127930336.46286419
123,95775515.3566901
2,1, 7,21, 0, 3,30.00,45.00,SummerDesignDay
8,19.034744262695314
11,128346066.90614103
123,95775515.3566901
2,1, 7,21, 0, 3,45.00,60.00,SummerDesignDay
8,18.96499632356402
11,128232708.9781054
123,95775515.3566901
2,1, 7,21, 0, 3, 0.00,60.00,SummerDesignDay
545,29.993150126669236
2,1, 7,21, 0, 4, 0.00,15.00,SummerDesignDay
8,18.89524540049439
11,128279545.10935959
123,95775515.3566901
2,1, 7,21, 0, 4,15.00,30.00,SummerDesignDay
8,18.825485229492189
11,128493134.4162369
123,95775515.3566901
2,1, 7,21, 0, 4,30.00,45.00,SummerDesignDay
8,18.7557373046875
11,128319788.1719714
123,95775515.3566901
2,1, 7,21, 0, 4,45.00,60.00,SummerDesignDay
8,18.685989379882814
11,128318428.15392316
123,95775515.3566901
2,1, 7,21, 0, 4, 0.00,60.00,SummerDesignDay
545,29.98624481432706
2,1, 7,21, 0, 5, 0.00,15.00,SummerDesignDay
8,18.63949530606028
11,128392619.64713727
123,95775515.3566901
2,1, 7,21, 0, 5,15.00,30.00,SummerDesignDay
8,18.592987060546876
11,128643195.22602517
123,95775515.3566901
2,1, 7,21, 0, 5,30.00,45.00,SummerDesignDay
8,18.54649177908492
11,128513052.11197841
123,95775515.3566901
2,1, 7,21, 0, 5,45.00,60.00,SummerDesignDay
8,18.49999810986028
11,122248920.10415462
123,95775515.3566901
2,1, 7,21, 0, 5, 0.00,60.00,SummerDesignDay
545,29.985749669965587
2,1, 7,21, 0, 6, 0.00,15.00,SummerDesignDay
8,18.54649177908492
11,168038223.1969511
123,95775515.3566901
2,1, 7,21, 0, 6,15.00,30.00,SummerDesignDay
8,18.592987060546876
11,170415664.95856417
123,95775515.3566901
2,1, 7,21, 0, 6,30.00,45.00,SummerDesignDay
8,18.63949530606028
11,163394980.98852528
123,95775515.3566901
2,1, 7,21, 0, 6,45.00,60.00,SummerDesignDay
8,18.685989379882814
11,159355592.55575878
123,95775515.3566901
2,1, 7,21, 0, 6, 0.00,60.00,SummerDesignDay
545,26.13349199953939
2,1, 7,21, 0, 7, 0.00,15.00,SummerDesignDay
8,18.848739624023439
11,179994244.5433911
123,174534823.02191
2,1, 7,21, 0, 7,15.00,30.00,SummerDesignDay
8,19.011489868164064
11,173005007.80770708
123,171717494.2158528
2,1, 7,21, 0, 7,30.00,45.00,SummerDesignDay
8,19.174240112304689
11,176682858.2055252
123,169234817.59672464
2,1, 7,21, 0, 7,45.00,60.00,SummerDesignDay
8,19.336990356445314
11,173543786.23290403
123,169229353.96275506
2,1, 7,21, 0, 7, 0.00,60.00,SummerDesignDay
545,24.047550906922845
2,1, 7,21, 0, 8, 0.00,15.00,SummerDesignDay
8,19.73223876953125
11,191730132.3201394
123,194381710.43943352
2,1, 7,21, 0, 8,15.00,30.00,SummerDesignDay
8,20.127487182617189
11,193921205.29132543
123,189739104.18243058
2,1, 7,21, 0, 8,30.00,45.00,SummerDesignDay
8,20.522735595703126
11,196088522.1099205
123,182731888.766838
2,1, 7,21, 0, 8,45.00,60.00,SummerDesignDay
8,20.917992548817627
11,198304609.39287324
123,194371791.94349716
2,1, 7,21, 0, 8, 0.00,60.00,SummerDesignDay
545,23.980252112501679
2,1, 7,21, 0, 9, 0.00,15.00,SummerDesignDay
8,21.35974061960832
11,199606826.0793575
123,193978898.87616433
2,1, 7,21, 0, 9,15.00,30.00,SummerDesignDay
8,21.80149265905943
11,202178295.8369978
123,193984822.99629573
2,1, 7,21, 0, 9,30.00,45.00,SummerDesignDay
8,22.243240356445314
11,204616139.2785347
123,177301270.3633694
2,1, 7,21, 0, 9,45.00,60.00,SummerDesignDay
8,22.420023807696297
11,206634401.14709533
123,193975440.28149108
2,1, 7,21, 0, 9, 0.00,60.00,SummerDesignDay
545,23.980190620994084
2,1, 7,21, 0,10, 0.00,15.00,SummerDesignDay
8,22.52939429544905
11,205041804.7515314
123,189897550.6623214
2,1, 7,21, 0,10,15.00,30.00,SummerDesignDay
8,22.638294333869877
11,206368674.956692
123,178817759.4690055
2,1, 7,21, 0,10,30.00,45.00,SummerDesignDay
8,22.74672657663008
11,207580706.43835739
123,193103584.95347817
2,1, 7,21, 0,10,45.00,60.00,SummerDesignDay
8,22.854695006230427
11,208741012.9754255
123,175618565.03376
2,1, 7,21, 0,10, 0.00,60.00,SummerDesignDay
545,23.97998843171482
2,1, 7,21, 0,11, 0.00,15.00,SummerDesignDay
8,22.949580571591015
11,208385775.66722808
123,188075950.81152756
2,1, 7,21, 0,11,15.00,30.00,SummerDesignDay
8,23.0441059976386
11,209462388.75433807
123,179252747.2005
2,1, 7,21, 0,11,30.00,45.00,SummerDesignDay
8,23.138280905067519
11,210405988.7873904
123,178092643.18966968
2,1, 7,21, 0,11,45.00,60.00,SummerDesignDay
8,23.232104587122938
11,211530347.66995458
123,189226035.2224179
2,1, 7,21, 0,11, 0.00,60.00,SummerDesignDay
545,23.98009146980759
2,1, 7,21, 0,12, 0.00,15.00,SummerDesignDay
8,23.294458182257715
11,213419466.23804809
123,175584996.12850989
2,1, 7,21, 0,12,15.00,30.00,SummerDesignDay
8,23.356656880409554
11,214255149.98401896
123,193119913.9536587
2,1, 7,21, 0,12,30.00,45.00,SummerDesignDay
8,23.41870192494561
11,214937441.72530959
123,177827363.42993216
2,1, 7,21, 0,12,45.00,60.00,SummerDesignDay
8,23.480593542408348
11,215749483.55226127
123,190876396.42907233
2,1, 7,21, 0,12, 0.00,60.00,SummerDesignDay
545,23.980268585445797
2,1, 7,21, 0,13, 0.00,15.00,SummerDesignDay
8,23.529998675577663
11,214883065.3062475
123,174660280.09159435
2,1, 7,21, 0,13,15.00,30.00,SummerDesignDay
8,23.579306427538606
11,215795603.23131595
123,192659045.84144873
2,1, 7,21, 0,13,30.00,45.00,SummerDesignDay
8,23.62851242394268
11,216498399.63359414
123,174666701.96928764
2,1, 7,21, 0,13,45.00,60.00,SummerDesignDay
8,23.677626430315248
11,217309346.09328554
123,192662544.0253302
2,1, 7,21, 0,13, 0.00,60.00,SummerDesignDay
545,23.980243111095427
2,1, 7,21, 0,14, 0.00,15.00,SummerDesignDay
8,23.708274654966226
11,216448846.98195026
123,173702693.7029819
2,1, 7,21, 0,14,15.00,30.00,SummerDesignDay
8,23.738881563111908
11,216977733.99706159
123,174070368.73972608
2,1, 7,21, 0,14,30.00,45.00,SummerDesignDay
8,23.76945433566311
11,217539793.66711138
123,191788358.35439543
2,1, 7,21, 0,14,45.00,60.00,SummerDesignDay
8,23.799986320868798
11,218090955.96720297
123,173700292.1809684
2,1, 7,21, 0,14, 0.00,60.00,SummerDesignDay
545,23.980269346080385
2,1, 7,21, 0,15, 0.00,15.00,SummerDesignDay
8,23.799986320868798
11,216793277.52015955
123,172658176.49609456
2,1, 7,21, 0,15,15.00,30.00,SummerDesignDay
8,23.799986320868798
11,216756453.1570713
123,190075919.67815096
2,1, 7,21, 0,15,30.00,45.00,SummerDesignDay
8,23.799986320868798
11,216768654.30767785
123,174261132.0983082
2,1, 7,21, 0,15,45.00,60.00,SummerDesignDay
8,23.799986320868798
11,216788855.9392417
123,172667676.3532354
2,1, 7,21, 0,15, 0.00,60.00,SummerDesignDay
545,23.9800898959561
2,1, 7,21, 0,16, 0.00,15.00,SummerDesignDay
8,23.763342191943058
11,216353001.68217425
123,178303644.27031819
2,1, 7,21, 0,16,15.00,30.00,SummerDesignDay
8,23.726643883214217
11,215853610.68058605
123,186015584.3183248
2,1, 7,21, 0,16,30.00,45.00,SummerDesignDay
8,23.689888257911428
11,215223401.98370979
123,172676889.27628095
2,1, 7,21, 0,16,45.00,60.00,SummerDesignDay
8,23.653081835774505
11,214564580.68790976
123,172662440.48755799
2,1, 7,21, 0,16, 0.00,60.00,SummerDesignDay
545,23.98020492095465
2,1, 7,21, 0,17, 0.00,15.00,SummerDesignDay
8,23.603923719146495
11,213795584.5910335
123,184834940.33002643
2,1, 7,21, 0,17,15.00,30.00,SummerDesignDay
8,23.55466446732659
11,213136208.48515434
123,179491528.22295047
2,1, 7,21, 0,17,30.00,45.00,SummerDesignDay
8,23.505308555416005
11,214856350.73743326
123,172671810.1323236
2,1, 7,21, 0,17,45.00,60.00,SummerDesignDay
8,23.4558543827806
11,213906028.56790839
123,173070345.9907264
2,1, 7,21, 0,17, 0.00,60.00,SummerDesignDay
545,23.98006736694455
2,1, 7,21, 0,18, 0.00,15.00,SummerDesignDay
8,23.393901322312414
11,215643895.6262707
123,192267523.3419946
2,1, 7,21, 0,18,15.00,30.00,SummerDesignDay
8,23.33179517863699
11,214672924.85836909
123,174666061.4370375
2,1, 7,21, 0,18,30.00,45.00,SummerDesignDay
8,23.269534315322305
11,213143229.571925
123,192662195.11325888
2,1, 7,21, 0,18,45.00,60.00,SummerDesignDay
8,23.207119318496696
11,212159738.3747385
123,174672341.32897724
2,1, 7,21, 0,18, 0.00,60.00,SummerDesignDay
545,23.980280457789175
2,1, 7,21, 0,19, 0.00,15.00,SummerDesignDay
8,23.11320144187493
11,215359696.19411815
123,193980182.4636653
2,1, 7,21, 0,19,15.00,30.00,SummerDesignDay
8,23.0189367248522
11,213582661.70491297
123,191160084.67751418
2,1, 7,21, 0,19,30.00,45.00,SummerDesignDay
8,22.924312313607478
11,213071011.70930378
123,180122064.16852883
2,1, 7,21, 0,19,45.00,60.00,SummerDesignDay
8,22.82933132300861
11,214128268.53537185
123,193976775.89351113
2,1, 7,21, 0,19, 0.00,60.00,SummerDesignDay
545,23.98118915748955
2,1, 7,21, 0,20, 0.00,15.00,SummerDesignDay
8,22.75945089348938
11,216494828.82335008
123,194379350.64943124
2,1, 7,21, 0,20,15.00,30.00,SummerDesignDay
8,22.689380537094857
11,215359827.14550377
123,194382685.23275478
2,1, 7,21, 0,20,30.00,45.00,SummerDesignDay
8,22.6191110648834
11,224065287.04968763
123,184711762.3438903
2,1, 7,21, 0,20,45.00,60.00,SummerDesignDay
8,22.548645905899027
11,223021846.25560988
123,187754292.51130773
2,1, 7,21, 0,20, 0.00,60.00,SummerDesignDay
545,23.98135829514976
2,1, 7,21, 0,21, 0.00,15.00,SummerDesignDay
8,22.490844247869313
11,219537794.82248564
123,193559817.10838033
2,1, 7,21, 0,21,15.00,30.00,SummerDesignDay
8,22.43291428736413
11,218477210.1837026
123,187273787.5441539
2,1, 7,21, 0,21,30.00,45.00,SummerDesignDay
8,22.374851547664414
11,217905908.2365367
123,182751854.53025184
2,1, 7,21, 0,21,45.00,60.00,SummerDesignDay
8,22.312987690310977
11,216873809.25141687
123,193563300.90172727
2,1, 7,21, 0,21, 0.00,60.00,SummerDesignDay
545,23.981571227502554
2,1, 7,21, 0,22, 0.00,15.00,SummerDesignDay
8,22.103744506835939
11,217303181.16355009
123,183284169.6670624
2,1, 7,21, 0,22,15.00,30.00,SummerDesignDay
8,21.894485473632814
11,216063544.53185616
123,187988998.5115957
2,1, 7,21, 0,22,30.00,45.00,SummerDesignDay
8,21.685237627773917
11,214800754.70739986
123,193978716.7234003
2,1, 7,21, 0,22,45.00,60.00,SummerDesignDay
8,21.475995587251039
11,213335473.04059256
123,193984653.60355894
2,1, 7,21, 0,22, 0.00,60.00,SummerDesignDay
545,23.981667477372619
2,1, 7,21, 0,23, 0.00,15.00,SummerDesignDay
8,21.313245597319697
11,209575149.1764941
123,175594037.73783905
2,1, 7,21, 0,23,15.00,30.00,SummerDesignDay
8,21.150492515933274
11,208593835.46072433
123,193124969.87040443
2,1, 7,21, 0,23,30.00,45.00,SummerDesignDay
8,20.98774680278067
11,207641072.26571385
123,175592270.52842186
2,1, 7,21, 0,23,45.00,60.00,SummerDesignDay
8,20.824995071347869
11,206534407.81826744
123,193123981.68465323
2,1, 7,21, 0,23, 0.00,60.00,SummerDesignDay
545,23.981769090137918
2,1, 7,21, 0,24, 0.00,15.00,SummerDesignDay
8,20.662246704101564
11,200085409.29001756
123,171592843.5712651
2,1, 7,21, 0,24,15.00,30.00,SummerDesignDay
8,20.499496459960939
11,198881199.30309216
123,171581364.7478168
2,1, 7,21, 0,24,30.00,45.00,SummerDesignDay
8,20.336746215820314
11,198205000.78422714
123,173121533.4284695
2,1, 7,21, 0,24,45.00,60.00,SummerDesignDay
8,20.173995840857065
11,197203078.5387603
123,184774132.84014056
2,1, 7,21, 0,24, 0.00,60.00,SummerDesignDay
545,23.981887245508319
3,1, 7,21, 0,SummerDesignDay
546,64.93209753407173,59.11432460236813, 7,60,79.91955576844812, 6, 5
4,1, 7
7,22.812875000000003,18.5,21, 5,60,27.8,21,14,60
1,BUFFALO NIAGARA INTL AP ANN HTG 99.6% CONDNS DB 1,  42.93, -78.73,  -5.00, 215.00
2,1, 1,21, 0, 1, 0.00,15.00,WinterDesignDay
8,-16.3
11,27652849.201331948
123,399897650.9573456
2,1, 1,21, 0, 1,15.00,30.00,WinterDesignDay
8,-16.3
11,27883658.57341188
123,406523315.5352901
2,1, 1,21, 0, 1,30.00,45.00,WinterDesignDay
8,-16.3
11,27922004.93887255
123,411240747.27637836
2,1, 1,21, 0, 1,45.00,60.00,WinterDesignDay
8,-16.3
11,27893683.40291786
123,411243031.9042083
2,1, 1,21, 0, 1, 0.00,60.00,WinterDesignDay
545,21.000000000000005
2,1, 1,21, 0, 2, 0.00,15.00,WinterDesignDay
8,-16.3
11,22059219.16546251
123,321145979.3699333
2,1, 1,21, 0, 2,15.00,30.00,WinterDesignDay
8,-16.3
11,22043443.115098444
123,312427311.83574399
2,1, 1,21, 0, 2,30.00,45.00,WinterDesignDay
8,-16.3
11,22043443.115098444
123,312427311.8386902
2,1, 1,21, 0, 2,45.00,60.00,WinterDesignDay
8,-16.3
11,22229415.82085558
123,312427311.84154435
2,1, 1,21, 0, 2, 0.00,60.00,WinterDesignDay
545,21.0
2,1, 1,21, 0, 3, 0.00,15.00,WinterDesignDay
8,-16.3
11,22043443.115098444
123,312427311.8443001
2,1, 1,21, 0, 3,15.00,30.00,WinterDesignDay
8,-16.3
11,22043443.115098444
123,312427311.8469663
2,1, 1,21, 0, 3,30.00,45.00,WinterDesignDay
8,-16.3
11,22229397.873528176
123,312427311.8495442
2,1, 1,21, 0, 3,45.00,60.00,WinterDesignDay
8,-16.3
11,22043443.115098444
123,312427311.8520285
2,1, 1,21, 0, 3, 0.00,60.00,WinterDesignDay
545,21.000000000000008
2,1, 1,21, 0, 4, 0.00,15.00,WinterDesignDay
8,-16.3
11,22043443.115098444
123,312427311.85444357
2,1, 1,21, 0, 4,15.00,30.00,WinterDesignDay
8,-16.3
11,22229379.8844055
123,312427311.85677978
2,1, 1,21, 0, 4,30.00,45.00,WinterDesignDay
8,-16.3
11,22043443.115098444
123,312427311.8590326
2,1, 1,21, 0, 4,45.00,60.00,WinterDesignDay
8,-16.3
11,22043443.115098444
123,312427311.8612147
2,1, 1,21, 0, 4, 0.00,60.00,WinterDesignDay
545,20.999999999999987
2,1, 1,21, 0, 5, 0.00,15.00,WinterDesignDay
8,-16.3
11,22043443.115098444
123,312427311.863326
2,1, 1,21, 0, 5,15.00,30.00,WinterDesignDay
8,-16.3
11,22229419.42726285
123,312427311.86536309
2,1, 1,21, 0, 5,30.00,45.00,WinterDesignDay
8,-16.3
11,22043443.115098444
123,312427311.86733588
2,1, 1,21, 0, 5,45.00,60.00,WinterDesignDay
8,-16.3
11,22043443.115098444
123,312427311.8692423
2,1, 1,21, 0, 5, 0.00,60.00,WinterDesignDay
545,21.0
2,1, 1,21, 0, 6, 0.00,15.00,WinterDesignDay
8,-16.3
11,22229401.48834719
123,312427311.871086
2,1, 1,21, 0, 6,15.00,30.00,WinterDesignDay
8,-16.3
11,22043443.115098444
123,312427311.8728701
2,1, 1,21, 0, 6,30.00,45.00,WinterDesignDay
8,-16.3
11,22043443.115098444
123,312427311.8745931
2,1, 1,21, 0, 6,45.00,60.00,WinterDesignDay
8,-16.3
11,22229383.50763379
123,312427311.8762598
2,1, 1,21, 0, 6, 0.00,60.00,WinterDesignDay
545,20.999999999999994
2,1, 1,21, 0, 7, 0.00,15.00,WinterDesignDay
8,-16.3
11,25579173.122515404
123,400454025.49644699
2,1, 1,21, 0, 7,15.00,30.00,WinterDesignDay
8,-16.3
11,25579173.122515404
123,410756067.9414852
2,1, 1,21, 0, 7,30.00,45.00,WinterDesignDay
8,-16.3
11,25579173.122515404
123,410761351.3252894
2,1, 1,21, 0, 7,45.00,60.00,WinterDesignDay
8,-16.3
11,25765153.02745475
123,404648377.2641105
2,1, 1,21, 0, 7, 0.00,60.00,WinterDesignDay
545,20.999999999999994
2,1, 1,21, 0, 8, 0.00,15.00,WinterDesignDay
8,-16.3
11,25579173.122515404
123,400314974.3880309
2,1, 1,21, 0, 8,15.00,30.00,WinterDesignDay
8,-16.3
11,25579173.122515404
123,410756035.0596954
2,1, 1,21, 0, 8,30.00,45.00,WinterDesignDay
8,-16.3
11,25765135.09692344
123,410761320.1462319
2,1, 1,21, 0, 8,45.00,60.00,WinterDesignDay
8,-16.3
11,15675536.045530376
123,404787498.8136544
2,1, 1,21, 0, 8, 0.00,60.00,WinterDesignDay
545,21.0
2,1, 1,21, 0, 9, 0.00,15.00,WinterDesignDay
8,-16.3
11,15675536.045530376
123,400176022.2302546
2,1, 1,21, 0, 9,15.00,30.00,WinterDesignDay
8,-16.3
11,15861480.047606938
123,410756002.189955
2,1, 1,21, 0, 9,30.00,45.00,WinterDesignDay
8,-16.3
11,15675536.045530376
123,410761288.97857156
2,1, 1,21, 0, 9,45.00,60.00,WinterDesignDay
8,-16.3
11,15675536.045530376
123,404926521.4212307
2,1, 1,21, 0, 9, 0.00,60.00,WinterDesignDay
545,21.00000000000001
2,1, 1,21, 0,10, 0.00,15.00,WinterDesignDay
8,-16.3
11,30421668.996432786
123,418477612.618567
2,1, 1,21, 0,10,15.00,30.00,WinterDesignDay
8,-16.3
11,30508503.036039056
123,427331189.9468342
2,1, 1,21, 0,10,30.00,45.00,WinterDesignDay
8,-16.3
11,30404826.116685045
123,427331189.94784