Program Version,EnergyPlus, Version 9.1.0-08d2e308bb, YMD=2020.01.03 10:58
1,5,Environment Title[],Latitude[deg],Longitude[deg],Time Zone[],Elevation[m]
2,8,Day of Simulation[],Month[],Day of Month[],DST Indicator[1=yes 0=no],Hour[],StartMinute[],EndMinute[],DayType
3,5,Cumulative Day of Simulation[],Month[],Day of Month[],DST Indicator[1=yes 0=no],DayType  ! When Daily Report Variables Requested
4,2,Cumulative Days of Simulation[],Month[]  ! When Monthly Report Variables Requested
5,1,Cumulative Days of Simulation[] ! When Run Period Report Variables Requested
6,1,Calendar Year of Simulation[] ! When Annual Report Variables Requested
7,9,Environment,Site Outdoor Air Drybulb Temperature [C] !Monthly [Value,Min,Day,Hour,Minute,Max,Day,Hour,Minute]
8,1,Environment,Site Outdoor Air Wetbulb Temperature [C] !TimeStep
488,1,BUILDING STORY 1 THERMALZONE,Zone Air Temperature [C] !Hourly
489,7,BUILDING STORY 1 THERMALZONE,Zone Air Relative Humidity [%] !Daily [Value,Min,Hour,Minute,Max,Hour,Minute]
528,1,BUILDING STORY 2 THERMALZONE,Zone Air Temperature [C] !Hourly
529,7,BUILDING STORY 2 THERMALZONE,Zone Air Relative Humidity [%] !Daily [Value,Min,Hour,Minute,Max,Hour,Minute]
568,1,BUILDING STORY 3 THERMALZONE,Zone Air Temperature [C] !Hourly
569,7,BUILDING STORY 3 THERMALZONE,Zone Air Relative Humidity [%] !Daily [Value,Min,Hour,Minute,Max,Hour,Minute]
10,1,Electricity:Facility [J] !TimeStep
925,1,Gas:Facility [J] !TimeStep
End of Data Dictionary
1,BUFFALO NIAGARA INTL AP ANN CLG .4% CONDNS DB=>MWB,  42.93, -78.73,  -5.00, 215.00
2,1, 7,21, 0, 1, 0.00,60.00,SummerDesignDay
8,19.36840579326866
10,525975834.5284847
925,0.0
2,1, 7,21, 0, 1, 0.00,60.00,SummerDesignDay
488,24.40022686138293
528,24.3999868449636
568,24.398494277162074
2,1, 7,21, 0, 2, 0.00,60.00,SummerDesignDay
8,19.25226217922265
10,502726329.0102267
925,0.0
2,1, 7,21, 0, 2, 0.00,60.00,SummerDesignDay
488,24.400159310097587
528,24.400023499429996
568,24.39872699086827
2,1, 7,21, 0, 3, 0.00,60.00,SummerDesignDay
8,19.164819553782637
10,488123326.1156432
925,0.0
2,1, 7,21, 0, 3, 0.00,60.00,SummerDesignDay
488,24.40006452997988
528,24.400017645445378
568,24.398873844304395
2,1, 7,21, 0, 4, 0.00,60.00,SummerDesignDay
8,19.0770792448193
10,477211925.62314257
925,0.0
2,1, 7,21, 0, 4, 0.00,60.00,SummerDesignDay
488,24.399974363967535
528,24.399999463946107
568,24.398980078901244
2,1, 7,21, 0, 5, 0.00,60.00,SummerDesignDay
8,19.018427637799467
10,485242622.2518456
925,0.0
2,1, 7,21, 0, 5, 0.00,60.00,SummerDesignDay
488,24.39987903379073
528,24.399960452712397
568,24.399033658193738
2,1, 7,21, 0, 6, 0.00,60.00,SummerDesignDay
8,19.0770792448193
10,488171920.09158846
925,0.0
2,1, 7,21, 0, 6, 0.00,60.00,SummerDesignDay
488,24.399441822403057
528,24.399606245204639
568,24.398644852496184
2,1, 7,21, 0, 7, 0.00,60.00,SummerDesignDay
8,19.281346189070228
10,783548844.2127479
925,0.0
2,1, 7,21, 0, 7, 0.00,60.00,SummerDesignDay
488,24.39812927051322
528,24.398386353403045
568,24.39740409355494
2,1, 7,21, 0, 8, 0.00,60.00,SummerDesignDay
8,19.770887505670989
10,1071826473.6474493
925,0.0
2,1, 7,21, 0, 8, 0.00,60.00,SummerDesignDay
488,24.39681581260987
528,24.396882082183777
568,24.395562281039216
2,1, 7,21, 0, 9, 0.00,60.00,SummerDesignDay
8,20.30732185289352
10,881125024.6509214
925,0.0
2,1, 7,21, 0, 9, 0.00,60.00,SummerDesignDay
488,24.397265899917188
528,24.396635852575899
568,24.394313224022765
2,1, 7,21, 0,10, 0.00,60.00,SummerDesignDay
8,20.778037156782458
10,891781624.8214944
925,0.0
2,1, 7,21, 0,10, 0.00,60.00,SummerDesignDay
488,24.398207371358784
528,24.397155136307963
568,24.39389563859565
2,1, 7,21, 0,11, 0.00,60.00,SummerDesignDay
8,21.186337137460165
10,899859658.827959
925,0.0
2,1, 7,21, 0,11, 0.00,60.00,SummerDesignDay
488,24.399166224180985
528,24.39797613195675
568,24.39412544505531
2,1, 7,21, 0,12, 0.00,60.00,SummerDesignDay
8,21.45495938709981
10,892603956.2577213
925,0.0
2,1, 7,21, 0,12, 0.00,60.00,SummerDesignDay
488,24.39989482341363
528,24.398731800347595
568,24.39464867795946
2,1, 7,21, 0,13, 0.00,60.00,SummerDesignDay
8,21.667839996742449
10,899223483.6399142
925,0.0
2,1, 7,21, 0,13, 0.00,60.00,SummerDesignDay
488,24.40009679140809
528,24.399009746680844
568,24.394771676872514
2,1, 7,21, 0,14, 0.00,60.00,SummerDesignDay
8,21.799990419629109
10,726388179.1258398
925,0.0
2,1, 7,21, 0,14, 0.00,60.00,SummerDesignDay
488,24.39988997511302
528,24.39882906235501
568,24.394401580539748
2,1, 7,21, 0,15, 0.00,60.00,SummerDesignDay
8,21.799990419629109
10,932252030.037296
925,0.0
2,1, 7,21, 0,15, 0.00,60.00,SummerDesignDay
488,24.399538736010709
528,24.398446552061974
568,24.393890326769296
2,1, 7,21, 0,16, 0.00,60.00,SummerDesignDay
8,21.641326796728476
10,960344302.0330075
925,0.0
2,1, 7,21, 0,16, 0.00,60.00,SummerDesignDay
488,24.399154911289118
528,24.39801787932727
568,24.393489936824829
2,1, 7,21, 0,17, 0.00,60.00,SummerDesignDay
8,21.42822317147698
10,828096404.3415479
925,0.0
2,1, 7,21, 0,17, 0.00,60.00,SummerDesignDay
488,24.398733236931958
528,24.39759580877094
568,24.393260324281667
2,1, 7,21, 0,18, 0.00,60.00,SummerDesignDay
8,21.15931786227956
10,1086350855.5147558
925,0.0
2,1, 7,21, 0,18, 0.00,60.00,SummerDesignDay
488,24.398367265684678
528,24.397314393340016
568,24.39334145427651
2,1, 7,21, 0,19, 0.00,60.00,SummerDesignDay
8,20.750583661392644
10,1073815678.3297489
925,0.0
2,1, 7,21, 0,19, 0.00,60.00,SummerDesignDay
488,24.39868546120452
528,24.39764881744653
568,24.394151074675894
2,1, 7,21, 0,20, 0.00,60.00,SummerDesignDay
8,20.446661088459409
10,1169175164.3467067
925,0.0
2,1, 7,21, 0,20, 0.00,60.00,SummerDesignDay
488,24.399675044511868
528,24.398650750213155
568,24.39558598536928
2,1, 7,21, 0,21, 0.00,60.00,SummerDesignDay
8,20.19530361990708
10,1059753258.7917466
925,0.0
2,1, 7,21, 0,21, 0.00,60.00,SummerDesignDay
488,24.399996060237766
528,24.399158671406388
568,24.39649968067589
2,1, 7,21, 0,22, 0.00,60.00,SummerDesignDay
8,19.941485234887624
10,774405631.8182583
925,0.0
2,1, 7,21, 0,22, 0.00,60.00,SummerDesignDay
488,24.400009320417028
528,24.39938284250715
568,24.397123071733309
2,1, 7,21, 0,23, 0.00,60.00,SummerDesignDay
8,19.7423381019073
10,866438485.7427665
925,0.0
2,1, 7,21, 0,23, 0.00,60.00,SummerDesignDay
488,24.40013080360271
528,24.39964251700434
568,24.397666715309645
2,1, 7,21, 0,24, 0.00,60.00,SummerDesignDay
8,19.54165603023991
10,781916666.9860501
925,0.0
2,1, 7,21, 0,24, 0.00,60.00,SummerDesignDay
488,24.400208352217378
528,24.39985126885399
568,24.398121026915527
3,1, 7,21, 0,SummerDesignDay
489,55.23053504146795,51.09859716286606,19,60,61.125854444853, 6,60
529,52.09260235762117,48.53690248531779,19,60,57.34490037906219, 6,60
569,54.11164878538501,51.08393475040829,18,60,58.32125295170594, 6,60
4,1, 7
7,25.312875000000003,21.0,21, 5,60,30.3,21,14,60
1,BUFFALO NIAGARA INTL AP ANN CLG .4% CONDNS WB=>MDB,  42.93, -78.73,  -5.00, 215.00
2,1, 7,21, 0, 1, 0.00,60.00,SummerDesignDay
8,19.615996954992807
10,501181099.95327016
925,0.0
2,1, 7,21, 0, 1, 0.00,60.00,SummerDesignDay
488,24.399921769333696
528,24.39974017434749
568,24.398405580842025
2,1, 7,21, 0, 2, 0.00,60.00,SummerDesignDay
8,19.243988037109376
10,473689444.58472767
925,0.0
2,1, 7,21, 0, 2, 0.00,60.00,SummerDesignDay
488,24.399822836482174
528,24.399794437136586
568,24.39880261584807
2,1, 7,21, 0, 3, 0.00,60.00,SummerDesignDay
8,18.96499632356402
10,455447136.57042899
925,0.0
2,1, 7,21, 0, 3, 0.00,60.00,SummerDesignDay
488,24.39976625368465
528,24.39981830099522
568,24.39907062522592
2,1, 7,21, 0, 4, 0.00,60.00,SummerDesignDay
8,18.685989379882814
10,441551914.7548658
925,0.0
2,1, 7,21, 0, 4, 0.00,60.00,SummerDesignDay
488,24.399739209485703
528,24.399828692717226
568,24.39926042792812
2,1, 7,21, 0, 5, 0.00,60.00,SummerDesignDay
8,18.49999810986028
10,447571416.9551099
925,0.0
2,1, 7,21, 0, 5, 0.00,60.00,SummerDesignDay
488,24.399712541449718
528,24.399819309344527
568,24.39937870872598
2,1, 7,21, 0, 6, 0.00,60.00,SummerDesignDay
8,18.685989379882814
10,453998944.68557009
925,0.0
2,1, 7,21, 0, 6, 0.00,60.00,SummerDesignDay
488,24.399240025082916
528,24.39948655024044
568,24.399114960503615
2,1, 7,21, 0, 7, 0.00,60.00,SummerDesignDay
8,19.336990356445314
10,757636782.2970663
925,0.0
2,1, 7,21, 0, 7, 0.00,60.00,SummerDesignDay
488,24.397815036014284
528,24.398237351181849
568,24.398022497265985
2,1, 7,21, 0, 8, 0.00,60.00,SummerDesignDay
8,20.917992548817627
10,1059322873.8465232
925,0.0
2,1, 7,21, 0, 8, 0.00,60.00,SummerDesignDay
488,24.396673703876549
528,24.396892961839954
568,24.39627518164635
2,1, 7,21, 0, 9, 0.00,60.00,SummerDesignDay
8,22.420023807696297
10,876338433.0471804
925,0.0
2,1, 7,21, 0, 9, 0.00,60.00,SummerDesignDay
488,24.39761524818984
528,24.396838084112685
568,24.394626745215285
2,1, 7,21, 0,10, 0.00,60.00,SummerDesignDay
8,22.854695006230427
10,889839645.1998884
925,0.0
2,1, 7,21, 0,10, 0.00,60.00,SummerDesignDay
488,24.398492782465973
528,24.397035371790193
568,24.393036415682908
2,1, 7,21, 0,11, 0.00,60.00,SummerDesignDay
8,23.232104587122938
10,900397091.2553263
925,0.0
2,1, 7,21, 0,11, 0.00,60.00,SummerDesignDay
488,24.39940145084321
528,24.39764300306775
568,24.392295752767507
2,1, 7,21, 0,12, 0.00,60.00,SummerDesignDay
8,23.480593542408348
10,892527661.2843798
925,0.0
2,1, 7,21, 0,12, 0.00,60.00,SummerDesignDay
488,24.400190882958279
528,24.39839815244398
568,24.39239006181367
2,1, 7,21, 0,13, 0.00,60.00,SummerDesignDay
8,23.677626430315248
10,900610209.9012202
925,0.0
2,1, 7,21, 0,13, 0.00,60.00,SummerDesignDay
488,24.40028034434692
528,24.398562957617579
568,24.39212395554072
2,1, 7,21, 0,14, 0.00,60.00,SummerDesignDay
8,23.799986320868798
10,730837157.8019822
925,0.0
2,1, 7,21, 0,14, 0.00,60.00,SummerDesignDay
488,24.399739040988579
528,24.398053250666157
568,24.391206084027944
2,1, 7,21, 0,15, 0.00,60.00,SummerDesignDay
8,23.799986320868798
10,938702367.8845745
925,0.0
2,1, 7,21, 0,15, 0.00,60.00,SummerDesignDay
488,24.39905113011094
528,24.3973105433097
568,24.390229084065277
2,1, 7,21, 0,16, 0.00,60.00,SummerDesignDay
8,23.653081835774505
10,967338466.8004298
925,0.0
2,1, 7,21, 0,16, 0.00,60.00,SummerDesignDay
488,24.398469021130017
528,24.396646456442374
568,24.389641924348074
2,1, 7,21, 0,17, 0.00,60.00,SummerDesignDay
8,23.4558543827806
10,835310339.74143
925,0.0
2,1, 7,21, 0,17, 0.00,60.00,SummerDesignDay
488,24.397899238295229
528,24.396076549179278
568,24.38942170831924
2,1, 7,21, 0,18, 0.00,60.00,SummerDesignDay
8,23.207119318496696
10,1093135279.6041878
925,0.0
2,1, 7,21, 0,18, 0.00,60.00,SummerDesignDay
488,24.397492391802488
528,24.39579744943046
568,24.38975072833674
2,1, 7,21, 0,19, 0.00,60.00,SummerDesignDay
8,22.82933132300861
10,1076911397.4640325
925,0.0
2,1, 7,21, 0,19, 0.00,60.00,SummerDesignDay
488,24.398375831775483
528,24.396621238180889
568,24.391342539245956
2,1, 7,21, 0,20, 0.00,60.00,SummerDesignDay
8,22.548645905899027
10,1167923006.2173882
925,0.0
2,1, 7,21, 0,20, 0.00,60.00,SummerDesignDay
488,24.40012244948589
528,24.398393313853373
568,24.39384475724181
2,1, 7,21, 0,21, 0.00,60.00,SummerDesignDay
8,22.312987690310977
10,1058468375.5626075
925,0.0
2,1, 7,21, 0,21, 0.00,60.00,SummerDesignDay
488,24.400629052762534
528,24.39922246592165
568,24.395384064084458
2,1, 7,21, 0,22, 0.00,60.00,SummerDesignDay
8,21.475995587251039
10,770785963.4071549
925,0.0
2,1, 7,21, 0,22, 0.00,60.00,SummerDesignDay
488,24.400243649073237
528,24.39929244930303
568,24.396277429998244
2,1, 7,21, 0,23, 0.00,60.00,SummerDesignDay
8,20.824995071347869
10,855985631.497109
925,0.0
2,1, 7,21, 0,23, 0.00,60.00,SummerDesignDay
488,24.400078201705609
528,24.399448150936647
568,24.39709062879086
2,1, 7,21, 0,24, 0.00,60.00,SummerDesignDay
8,20.173995840857065
10,763902205.9297001
925,0.0
2,1, 7,21, 0,24, 0.00,60.00,SummerDesignDay
488,24.399978912195889
528,24.399608118832299
568,24.397814781379855
3,1, 7,21, 0,SummerDesignDay
489,61.57338276403922,55.78899699829073,19,60,67.25687142053829, 5,60
529,57.61115985971156,53.12938423813415,19,60,62.1764191173287, 5,60
569,61.999848088048938,58.81421475816852,18,60,64.10112853108365, 3,60
4,1, 7
7,22.812875000000003,18.5,21, 5,60,27.8,21,14,60
1,BUFFALO NIAGARA INTL AP ANN HTG 99.6% CONDNS DB,  42.93, -78.73,  -5.00, 215.00
2,1, 1,21, 0, 1, 0.00,60.00,WinterDesignDay
8,-16.3
10,373460799.1063811
925,1554928750.069594
2,1, 1,21, 0, 1, 0.00,60.00,WinterDesignDay
488,21.700781352412048
528,21.701680677416804
568,21.70292280817762
2,1, 1,21, 0, 2, 0.00,60.00,WinterDesignDay
8,-16.3
10,363715323.0283425
925,1569030976.726326
2,1, 1,21, 0, 2, 0.00,60.00,WinterDesignDay
488,21.700856706591187
528,21.70187958383212
568,21.702765246579916
2,1, 1,21, 0, 3, 0.00,60.00,WinterDesignDay
8,-16.3
10,358846530.64771708
925,1578123457.090129
2,1, 1,21, 0, 3, 0.00,60.00,WinterDesignDay
488,21.700911337906239
528,21.702010390160717
568,21.702751047952647
2,1, 1,21, 0, 4, 0.00,60.00,WinterDesignDay
8,-16.3
10,356415856.4409721
925,1584390287.3457642
2,1, 1,21, 0, 4, 0.00,60.00,WinterDesignDay
488,21.700950949145378
528,21.70210117399005
568,21.702773164678434
2,1, 1,21, 0, 5, 0.00,60.00,WinterDesignDay
8,-16.3
10,368374402.7965306
925,1581475175.172581
2,1, 1,21, 0, 5, 0.00,60.00,WinterDesignDay
488,21.700952625135039
528,21.70211137396595
568,21.702770969692215
2,1, 1,21, 0, 6, 0.00,60.00,WinterDesignDay
8,-16.3
10,401492348.359109
925,1561233969.7149039
2,1, 1,21, 0, 6, 0.00,60.00,WinterDesignDay
488,21.700881613412777
528,21.701977389327629
568,21.702696480353564
2,1, 1,21, 0, 7, 0.00,60.00,WinterDesignDay
8,-16.3
10,848932159.8189161
925,1535772917.4116467
2,1, 1,21, 0, 7, 0.00,60.00,WinterDesignDay
488,21.700780281518357
528,21.701781305803647
568,21.70258333971858
2,1, 1,21, 0, 8, 0.00,60.00,WinterDesignDay
8,-16.3
10,668631636.9460672
925,1525578745.711587
2,1, 1,21, 0, 8, 0.00,60.00,WinterDesignDay
488,21.700733032630649
528,21.70166094238792
568,21.70250393787986
2,1, 1,21, 0, 9, 0.00,60.00,WinterDesignDay
8,-16.3
10,787977923.2004193
925,1570801424.1485606
2,1, 1,21, 0, 9, 0.00,60.00,WinterDesignDay
488,21.70090073551347
528,21.70189865443578
568,21.702614990007523
2,1, 1,21, 0,10, 0.00,60.00,WinterDesignDay
8,-16.3
10,574466428.4369419
925,1584240334.2088359
2,1, 1,21, 0,10, 0.00,60.00,WinterDesignDay
488,21.700972305601785
528,21.702065490518256
568,21.702695206680067
2,1, 1,21, 0,11, 0.00,60.00,WinterDesignDay
8,-16.3
10,723693403.3045095
925,1581316559.8705435
2,1, 1,21, 0,11, 0.00,60.00,WinterDesignDay
488,21.700937906513496
528,21.70208673123827
568,21.702707827163768
2,1, 1,21, 0,12, 0.00,60.00,WinterDesignDay
8,-16.3
10,626813500.7591229
925,1580183135.9568477
2,1, 1,21, 0,12, 0.00,60.00,WinterDesignDay
488,21.70089351532443
528,21.702072449244949
568,21.702701102466567
2,1, 1,21, 0,13, 0.00,60.00,WinterDesignDay
8,-16.3
10,377099803.5314561
925,1582832488.0634843
2,1, 1,21, 0,13, 0.00,60.00,WinterDesignDay
488,21.700870494385616
528,21.70207548329372
568,21.702701562655326
2,1, 1,21, 0,14, 0.00,60.00,WinterDesignDay
8,-16.3
10,561275060.6540167
925,1589681310.0698319
2,1, 1,21, 0,14, 0.00,60.00,WinterDesignDay
488,21.70087488184015
528,21.702116857633386
568,21.702720665645744
2,1, 1,21, 0,15, 0.00,60.00,WinterDesignDay
8,-16.3
10,557154628.0055622
925,1592569076.4666615
2,1, 1,21, 0,15, 0.00,60.00,WinterDesignDay
488,21.700871310055406
528,21.702144272156138
568,21.702734339284058
2,1, 1,21, 0,16, 0.00,60.00,WinterDesignDay
8,-16.3
10,575044679.219019
925,1582388166.7327913
2,1, 1,21, 0,16, 0.00,60.00,WinterDesignDay
488,21.70081638810447
528,21.702072568912518
568,21.702699479150689
2,1, 1,21, 0,17, 0.00,60.00,WinterDesignDay
8,-16.3
10,627445722.5661496
925,1541082523.234581
2,1, 1,21, 0,17, 0.00,60.00,WinterDesignDay
488,21.700651550569579
528,21.701775728630716
568,21.70254334606328
2,1, 1,21, 0,18, 0.00,60.00,WinterDesignDay
8,-16.3
10,767116744.1764438
925,1468474580.9466778
2,1, 1,21, 0,18, 0.00,60.00,WinterDesignDay
488,21.700841332835098
528,21.701313982738
568,21.704672482549289
2,1, 1,21, 0,19, 0.00,60.00,WinterDesignDay
8,-16.3
10,791970861.0949581
925,1422020493.5998803
2,1, 1,21, 0,19, 0.00,60.00,WinterDesignDay
488,21.70068134990488
528,21.700993214073024
568,21.705086961035339
2,1, 1,21, 0,20, 0.00,60.00,WinterDesignDay
8,-16.3
10,990356427.1002704
925,1421321162.4772137
2,1, 1,21, 0,20, 0.00,60.00,WinterDesignDay
488,21.700674154059617
528,21.700890881703129
568,21.70520733475917
2,1, 1,21, 0,21, 0.00,60.00,WinterDesignDay
8,-16.3
10,776611229.847062
925,1422759225.0632296
2,1, 1,21, 0,21, 0.00,60.00,WinterDesignDay
488,21.70070329239325
528,21.700871516579537
568,21.70525884819106
2,1, 1,21, 0,22, 0.00,60.00,WinterDesignDay
8,-16.3
10,732849078.8160789
925,1431630886.3520683
2,1, 1,21, 0,22, 0.00,60.00,WinterDesignDay
488,21.700750064459244
528,21.700905587731666
568,21.705355859885939
2,1, 1,21, 0,23, 0.00,60.00,WinterDesignDay
8,-16.3
10,666520144.057845
925,1476492551.721241
2,1, 1,21, 0,23, 0.00,60.00,WinterDesignDay
488,21.7009762135987
528,21.701098722753576
568,21.705708079944406
2,1, 1,21, 0,24, 0.00,60.00,WinterDesignDay
8,-16.3
10,420797681.86135479
925,1517550921.745694
2,1, 1,21, 0,24, 0.00,60.00,WinterDesignDay
488,21.700699258159167
528,21.701370387158677
568,21.70354566204628
3,1, 1,21, 0,WinterDesignDay
489,8.1107190726061,7.028123122027822,17,60,9.041690827709385, 7,60
529,7.486612223239142,6.790114722383136,17,60,8.107280726115368, 7,60
569,6.1570666415647639,5.905974910672302,17,60,6.36723555359911, 7,60
4,1, 1
7,-16.300000000000009,-16.3,21, 1,60,-16.3,21, 1,60
End of Data
 Number of Records Written=         444
