Program Version,EnergyPlus, Version 9.1.0-fafb9d5652, YMD=2020.03.24 18:14
1,5,Environment Title[],Latitude[deg],Longitude[deg],Time Zone[],Elevation[m]
2,8,Day of Simulation[],Month[],Day of Month[],DST Indicator[1=yes 0=no],Hour[],StartMinute[],EndMinute[],DayType
3,5,Cumulative Day of Simulation[],Month[],Day of Month[],DST Indicator[1=yes 0=no],DayType  ! When Daily Report Variables Requested
4,2,Cumulative Days of Simulation[],Month[]  ! When Monthly Report Variables Requested
5,1,Cumulative Days of Simulation[] ! When Run Period Report Variables Requested
6,1,Calendar Year of Simulation[] ! When Annual Report Variables Requested
7,9,Environment,Site Outdoor Air Drybulb Temperature [C] !Monthly [Value,Min,Day,Hour,Minute,Max,Day,Hour,Minute]
8,1,Environment,Site Outdoor Air Wetbulb Temperature [C] !TimeStep
636,1,BUILDING STORY 1 THERMALZONE,Zone Air Temperature [C] !Hourly
637,7,BUILDING STORY 1 THERMALZONE,Zone Air Relative Humidity [%] !Daily [Value,Min,Hour,Minute,Max,Hour,Minute]
676,1,BUILDING STORY 2 THERMALZONE,Zone Air Temperature [C] !Hourly
677,7,BUILDING STORY 2 THERMALZONE,Zone Air Relative Humidity [%] !Daily [Value,Min,Hour,Minute,Max,Hour,Minute]
716,1,BUILDING STORY 3 THERMALZONE,Zone Air Temperature [C] !Hourly
717,7,BUILDING STORY 3 THERMALZONE,Zone Air Relative Humidity [%] !Daily [Value,Min,Hour,Minute,Max,Hour,Minute]
11,1,Electricity:Facility [J] !TimeStep
214,1,Gas:Facility [J] !TimeStep
End of Data Dictionary
1,BUFFALO NIAGARA INTL AP ANN CLG .4% CONDNS DB=>MWB 1,  42.93, -78.73,  -5.00, 215.00
2,1, 7,21, 0, 1, 0.00,15.00,SummerDesignDay
8,19.498447168617639
11,1235594698.6411124
214,959105321.7367059
2,1, 7,21, 0, 1,15.00,30.00,SummerDesignDay
8,19.455172187031058
11,1232638950.9779456
214,959059890.7387496
2,1, 7,21, 0, 1,30.00,45.00,SummerDesignDay
8,19.4118249624254
11,1231489358.3869343
214,959013447.7391465
2,1, 7,21, 0, 1,45.00,60.00,SummerDesignDay
8,19.36840579326866
11,1229907033.221519
214,958965967.1448107
2,1, 7,21, 0, 1, 0.00,60.00,SummerDesignDay
636,24.29579068265159
676,24.13004086830498
716,25.985486527287028
2,1, 7,21, 0, 2, 0.00,15.00,SummerDesignDay
8,19.339418379179575
11,1185789300.8564668
214,601488101.6239319
2,1, 7,21, 0, 2,15.00,30.00,SummerDesignDay
8,19.310398399050294
11,1185164034.745105
214,539260566.3104253
2,1, 7,21, 0, 2,30.00,45.00,SummerDesignDay
8,19.281346189070228
11,1185471427.0512338
214,539260566.3104253
2,1, 7,21, 0, 2,45.00,60.00,SummerDesignDay
8,19.25226217922265
11,1185075749.599414
214,539260566.3104253
2,1, 7,21, 0, 2, 0.00,60.00,SummerDesignDay
636,24.31075372870451
676,24.129646006283456
716,26.277257510773624
2,1, 7,21, 0, 3, 0.00,15.00,SummerDesignDay
8,19.230428408408469
11,1184142456.9559055
214,539260566.3104253
2,1, 7,21, 0, 3,15.00,30.00,SummerDesignDay
8,19.208577345747888
11,1183314892.6738458
214,539260566.3104253
2,1, 7,21, 0, 3,30.00,45.00,SummerDesignDay
8,19.18670730756924
11,1182506504.4834266
214,539260566.3104253
2,1, 7,21, 0, 3,45.00,60.00,SummerDesignDay
8,19.164819553782637
11,1181897534.8443499
214,539260566.3104253
2,1, 7,21, 0, 3, 0.00,60.00,SummerDesignDay
636,24.310707246279266
676,24.1186483922322
716,26.322624281351158
2,1, 7,21, 0, 4, 0.00,15.00,SummerDesignDay
8,19.14291293517813
11,1180916292.927755
214,539260566.3104253
2,1, 7,21, 0, 4,15.00,30.00,SummerDesignDay
8,19.12098348580758
11,1180114619.3857289
214,539260566.3104253
2,1, 7,21, 0, 4,30.00,45.00,SummerDesignDay
8,19.099040706060096
11,1179495070.106494
214,539260566.3104253
2,1, 7,21, 0, 4,45.00,60.00,SummerDesignDay
8,19.0770792448193
11,1178504160.0422378
214,539260566.3104253
2,1, 7,21, 0, 4, 0.00,60.00,SummerDesignDay
636,24.30892326009405
676,24.10734463757886
716,26.327806298022837
2,1, 7,21, 0, 5, 0.00,15.00,SummerDesignDay
8,19.06243010115264
11,1177963134.6291502
214,539260566.3104253
2,1, 7,21, 0, 5,15.00,30.00,SummerDesignDay
8,19.047767571267707
11,1177610113.639891
214,539260566.3104253
2,1, 7,21, 0, 5,30.00,45.00,SummerDesignDay
8,19.033101337600248
11,1176887928.446412
214,539260566.3104253
2,1, 7,21, 0, 5,45.00,60.00,SummerDesignDay
8,19.018427637799467
11,1143030618.4773107
214,539260566.3104253
2,1, 7,21, 0, 5, 0.00,60.00,SummerDesignDay
636,24.307551350926145
676,24.097430753829494
716,26.32710996407647
2,1, 7,21, 0, 6, 0.00,15.00,SummerDesignDay
8,19.033101337600248
11,1142181943.7720245
214,539260566.3104253
2,1, 7,21, 0, 6,15.00,30.00,SummerDesignDay
8,19.047767571267707
11,1137470625.7678197
214,539260566.3104253
2,1, 7,21, 0, 6,30.00,45.00,SummerDesignDay
8,19.06243010115264
11,1120129680.3196464
214,539260566.3104253
2,1, 7,21, 0, 6,45.00,60.00,SummerDesignDay
8,19.0770792448193
11,1112897021.0007447
214,539260566.3104253
2,1, 7,21, 0, 6, 0.00,60.00,SummerDesignDay
636,24.324489104268446
676,24.133276846156819
716,26.395683216798504
2,1, 7,21, 0, 7, 0.00,15.00,SummerDesignDay
8,19.12829527807298
11,1151052350.6574395
214,960041452.9058194
2,1, 7,21, 0, 7,15.00,30.00,SummerDesignDay
8,19.179411890099734
11,1136132448.2505859
214,952205834.9509335
2,1, 7,21, 0, 7,30.00,45.00,SummerDesignDay
8,19.230428408408469
11,1147088354.7069436
214,952176510.9922178
2,1, 7,21, 0, 7,45.00,60.00,SummerDesignDay
8,19.281346189070228
11,1147382990.1935425
214,952146789.8597105
2,1, 7,21, 0, 7, 0.00,60.00,SummerDesignDay
636,24.00179878205806
676,23.996364667674045
716,26.007363832723639
2,1, 7,21, 0, 8, 0.00,15.00,SummerDesignDay
8,19.404591898480026
11,1253473342.9743539
214,1094237540.5357352
2,1, 7,21, 0, 8,15.00,30.00,SummerDesignDay
8,19.527259399674614
11,1254598751.9515773
214,1094257475.875434
2,1, 7,21, 0, 8,30.00,45.00,SummerDesignDay
8,19.649352983497768
11,1262036784.7669636
214,1018296536.0494948
2,1, 7,21, 0, 8,45.00,60.00,SummerDesignDay
8,19.770887505670989
11,1269643622.270161
214,1078231984.5762959
2,1, 7,21, 0, 8, 0.00,60.00,SummerDesignDay
636,23.98794815568045
676,23.988572914419593
716,25.98555991360397
2,1, 7,21, 0, 9, 0.00,15.00,SummerDesignDay
8,19.906033007607879
11,1270385382.5878125
214,1091963097.275321
2,1, 7,21, 0, 9,15.00,30.00,SummerDesignDay
8,20.04048914686797
11,1277579039.8880728
214,1091998363.245843
2,1, 7,21, 0, 9,30.00,45.00,SummerDesignDay
8,20.174247070804034
11,1285224182.6062742
214,997847432.9790651
2,1, 7,21, 0, 9,45.00,60.00,SummerDesignDay
8,20.30732185289352
11,1293104081.3761574
214,1091946994.6890326
2,1, 7,21, 0, 9, 0.00,60.00,SummerDesignDay
636,23.988109717782224
676,23.98863764533602
716,25.985477229114215
2,1, 7,21, 0,10, 0.00,15.00,SummerDesignDay
8,20.425808927886167
11,1282453244.5294398
214,1078031714.5664449
2,1, 7,21, 0,10,15.00,30.00,SummerDesignDay
8,20.54375394491567
11,1289058792.2349582
214,997307194.857132
2,1, 7,21, 0,10,30.00,45.00,SummerDesignDay
8,20.661161978641567
11,1294402174.95343
214,1087149922.833291
2,1, 7,21, 0,10,45.00,60.00,SummerDesignDay
8,20.778037156782458
11,1300575131.414469
214,988208497.6596592
2,1, 7,21, 0,10, 0.00,60.00,SummerDesignDay
636,23.988178893106359
676,23.988715448566894
716,25.985545590018075
2,1, 7,21, 0,11, 0.00,15.00,SummerDesignDay
8,20.880723789184299
11,1296471773.1854809
214,1053590833.029191
2,1, 7,21, 0,11,15.00,30.00,SummerDesignDay
8,20.982997220428218
11,1301260908.0173667
214,1013876261.0598307
2,1, 7,21, 0,11,30.00,45.00,SummerDesignDay
8,21.084868854932993
11,1305473495.040931
214,991198128.466416
2,1, 7,21, 0,11,45.00,60.00,SummerDesignDay
8,21.186337137460165
11,1310030340.2086108
214,1076219560.911275
2,1, 7,21, 0,11, 0.00,60.00,SummerDesignDay
636,23.98819285703183
676,23.988748816626246
716,25.98560265883021
2,1, 7,21, 0,12, 0.00,15.00,SummerDesignDay
8,21.25375761031924
11,1320309809.2728949
214,988159395.9143753
2,1, 7,21, 0,12,15.00,30.00,SummerDesignDay
8,21.321001301623704
11,1323392820.2684446
214,1087119318.0298324
2,1, 7,21, 0,12,30.00,45.00,SummerDesignDay
8,21.388067863863197
11,1333698323.9367359
214,988153254.2876861
2,1, 7,21, 0,12,45.00,60.00,SummerDesignDay
8,21.45495938709981
11,1338843426.397448
214,1087115893.0177727
2,1, 7,21, 0,12, 0.00,60.00,SummerDesignDay
636,23.98813376389085
676,23.988705944495984
716,25.98556977860147
2,1, 7,21, 0,13, 0.00,15.00,SummerDesignDay
8,21.50834731769637
11,1334942423.2496553
214,982937086.9949296
2,1, 7,21, 0,13,15.00,30.00,SummerDesignDay
8,21.561624484493195
11,1340229904.4510396
214,1084516826.3090964
2,1, 7,21, 0,13,30.00,45.00,SummerDesignDay
8,21.614785322779669
11,1346052591.7828844
214,982977100.5455717
2,1, 7,21, 0,13,45.00,60.00,SummerDesignDay
8,21.667839996742449
11,1351736740.824806
214,1060104026.7560204
2,1, 7,21, 0,13, 0.00,60.00,SummerDesignDay
636,23.988022547263708
676,23.988600775686249
716,25.98551173125373
2,1, 7,21, 0,14, 0.00,15.00,SummerDesignDay
8,21.700944669131724
11,1348970046.8674503
214,1002543011.1976429
2,1, 7,21, 0,14,15.00,30.00,SummerDesignDay
8,21.734001168312525
11,1353911009.261748
214,977433867.8659654
2,1, 7,21, 0,14,30.00,45.00,SummerDesignDay
8,21.76701969568146
11,1358771304.9199832
214,1067514067.0625315
2,1, 7,21, 0,14,45.00,60.00,SummerDesignDay
8,21.799990419629109
11,1364056612.5673328
214,991731367.8264408
2,1, 7,21, 0,14, 0.00,60.00,SummerDesignDay
636,23.98801295245435
676,23.988581342789105
716,25.985502586687173
2,1, 7,21, 0,15, 0.00,15.00,SummerDesignDay
8,21.799990419629109
11,1358453060.1253503
214,971629004.9575799
2,1, 7,21, 0,15,15.00,30.00,SummerDesignDay
8,21.799990419629109
11,1360188718.5568176
214,1016232590.7674263
2,1, 7,21, 0,15,30.00,45.00,SummerDesignDay
8,21.799990419629109
11,1362344897.6560355
214,1034223575.803249
2,1, 7,21, 0,15,45.00,60.00,SummerDesignDay
8,21.799990419629109
11,1364330036.7589517
214,971687444.6811507
2,1, 7,21, 0,15, 0.00,60.00,SummerDesignDay
636,23.98808155224567
676,23.988638250095684
716,25.985545995291134
2,1, 7,21, 0,16, 0.00,15.00,SummerDesignDay
8,21.76041850322365
11,1362346657.3316868
214,971607274.7247664
2,1, 7,21, 0,16,15.00,30.00,SummerDesignDay
8,21.720784448671354
11,1360550967.7319415
214,1042931730.25387
2,1, 7,21, 0,16,30.00,45.00,SummerDesignDay
8,21.681084832383254
11,1358835589.3514746
214,1007559751.534709
2,1, 7,21, 0,16,45.00,60.00,SummerDesignDay
8,21.641326796728476
11,1356295902.410446
214,971666433.5832981
2,1, 7,21, 0,16, 0.00,60.00,SummerDesignDay
636,23.98815695776036
676,23.988707864167478
716,25.985612028332214
2,1, 7,21, 0,17, 0.00,15.00,SummerDesignDay
8,21.588221131429309
11,1352545391.1163357
214,971585269.3234891
2,1, 7,21, 0,17,15.00,30.00,SummerDesignDay
8,21.53499969964235
11,1348471655.9231857
214,1069649945.878411
2,1, 7,21, 0,17,30.00,45.00,SummerDesignDay
8,21.481667371722027
11,1344070224.8275974
214,980896564.9430165
2,1, 7,21, 0,17,45.00,60.00,SummerDesignDay
8,21.42822317147698
11,1339356558.41305
214,971645167.1024643
2,1, 7,21, 0,17, 0.00,60.00,SummerDesignDay
636,23.988218844176069
676,23.98876917752324
716,25.985675285607646
2,1, 7,21, 0,18, 0.00,15.00,SummerDesignDay
8,21.36126189357475
11,1352595795.3929625
214,1070216246.517878
2,1, 7,21, 0,18,15.00,30.00,SummerDesignDay
8,21.294124428217594
11,1346373724.3097339
214,997281910.2417513
2,1, 7,21, 0,18,30.00,45.00,SummerDesignDay
8,21.22680984257423
11,1338170737.5654278
214,1007779697.4310992
2,1, 7,21, 0,18,45.00,60.00,SummerDesignDay
8,21.15931786227956
11,1338076223.0410465
214,1059640920.4338167
2,1, 7,21, 0,18, 0.00,60.00,SummerDesignDay
636,23.988266776943158
676,23.988805420846537
716,25.98572759062921
2,1, 7,21, 0,19, 0.00,15.00,SummerDesignDay
8,21.057742794759656
11,1357583052.991717
214,1077061201.0490247
2,1, 7,21, 0,19,15.00,30.00,SummerDesignDay
8,20.95576719398477
11,1353872739.6688143
214,1012780508.7434576
2,1, 7,21, 0,19,30.00,45.00,SummerDesignDay
8,20.853380308726839
11,1350286980.332541
214,1091960759.214497
2,1, 7,21, 0,19,45.00,60.00,SummerDesignDay
8,20.750583661392644
11,1350527599.5073972
214,1091996192.7270647
2,1, 7,21, 0,19, 0.00,60.00,SummerDesignDay
636,23.988223029229404
676,23.988828809744775
716,25.985731558175563
2,1, 7,21, 0,20, 0.00,15.00,SummerDesignDay
8,20.674937724862624
11,1363837573.338217
214,1048960259.5974114
2,1, 7,21, 0,20,15.00,30.00,SummerDesignDay
8,20.599073217758077
11,1357541380.5275827
214,1047581988.3357639
2,1, 7,21, 0,20,30.00,45.00,SummerDesignDay
8,20.522979916101986
11,1397432827.9252322
214,1094199446.3025709
2,1, 7,21, 0,20,45.00,60.00,SummerDesignDay
8,20.446661088459409
11,1391733530.6863497
214,1094221323.7050043
2,1, 7,21, 0,20, 0.00,60.00,SummerDesignDay
636,23.98816406476669
676,23.988778685277006
716,25.98573404354144
2,1, 7,21, 0,21, 0.00,15.00,SummerDesignDay
8,20.38404830308516
11,1370695057.9705699
214,1067711595.634529
2,1, 7,21, 0,21,15.00,30.00,SummerDesignDay
8,20.321288186392434
11,1366797298.1216825
214,1015041617.7550542
2,1, 7,21, 0,21,30.00,45.00,SummerDesignDay
8,20.258374971249056
11,1362393647.9874247
214,1089618559.2924524
2,1, 7,21, 0,21,45.00,60.00,SummerDesignDay
8,20.19530361990708
11,1357839585.19782
214,993118893.8054929
2,1, 7,21, 0,21, 0.00,60.00,SummerDesignDay
636,23.988038915735389
676,23.988639994594388
716,25.985610707022077
2,1, 7,21, 0,22, 0.00,15.00,SummerDesignDay
8,20.13208244849811
11,1362623665.090677
214,1091946064.7930518
2,1, 7,21, 0,22,15.00,30.00,SummerDesignDay
8,20.068702801189454
11,1358400262.1231752
214,1091982550.9867016
2,1, 7,21, 0,22,30.00,45.00,SummerDesignDay
8,20.00517186709804
11,1353920428.9616187
214,1051773316.630078
2,1, 7,21, 0,22,45.00,60.00,SummerDesignDay
8,19.941485234887624
11,1350736481.7225438
214,1038032122.3428974
2,1, 7,21, 0,22, 0.00,60.00,SummerDesignDay
636,23.98799267637029
676,23.988591904519418
716,25.98555272818473
2,1, 7,21, 0,23, 0.00,15.00,SummerDesignDay
8,19.891841194221017
11,1330887029.3802756
214,1087135966.900174
2,1, 7,21, 0,23,15.00,30.00,SummerDesignDay
8,19.842102082714037
11,1327851929.9103153
214,988183307.1814426
2,1, 7,21, 0,23,30.00,45.00,SummerDesignDay
8,19.792267923486706
11,1324878259.4805334
214,1087132652.5806123
2,1, 7,21, 0,23,45.00,60.00,SummerDesignDay
8,19.7423381019073
11,1321874423.4048813
214,988177324.6436062
2,1, 7,21, 0,23, 0.00,60.00,SummerDesignDay
636,23.987964850786289
676,23.988561380850919
716,25.98552111645869
2,1, 7,21, 0,24, 0.00,15.00,SummerDesignDay
8,19.69231210730981
11,1286730204.683119
214,994806068.9816779
2,1, 7,21, 0,24,15.00,30.00,SummerDesignDay
8,19.64219032081547
11,1283951102.7918206
214,1037323820.7900682
2,1, 7,21, 0,24,30.00,45.00,SummerDesignDay
8,19.591971502420358
11,1281272019.9065686
214,974665439.592469
2,1, 7,21, 0,24,45.00,60.00,SummerDesignDay
8,19.54165603023991
11,1278527836.229296
214,965536945.067996
2,1, 7,21, 0,24, 0.00,60.00,SummerDesignDay
636,23.987941800008856
676,23.98853602618405
716,25.98550138437687
3,1, 7,21, 0,SummerDesignDay
637,61.127548281395629,60.24723798755976,17,30,62.418225045517107, 7, 7
677,59.243616197665748,58.39963241549566,17,45,60.038225340797129, 7, 7
717,52.722726324052327,51.762457993252059,16,60,53.53052953629439, 1,60
4,1, 7
7,25.312875000000007,21.0,21, 5,60,30.3,21,14,60
1,BUFFALO NIAGARA INTL AP ANN CLG .4% CONDNS WB=>MDB 1,  42.93, -78.73,  -5.00, 215.00
2,1, 7,21, 0, 1, 0.00,15.00,SummerDesignDay
8,20.03448486328125
11,1242812696.58981
214,959105321.7367059
2,1, 7,21, 0, 1,15.00,30.00,SummerDesignDay
8,19.894989013671876
11,1237083388.172428
214,959059890.7387496
2,1, 7,21, 0, 1,30.00,45.00,SummerDesignDay
8,19.7554931640625
11,1233130252.3188077
214,959013447.7391465
2,1, 7,21, 0, 1,45.00,60.00,SummerDesignDay
8,19.615996954992807
11,1228786461.6474117
214,958965967.1448107
2,1, 7,21, 0, 1, 0.00,60.00,SummerDesignDay
636,24.309879719070623
676,24.08668106194181
716,25.984950909787455
2,1, 7,21, 0, 2, 0.00,15.00,SummerDesignDay
8,19.522994995117189
11,1186782680.9074283
214,601488101.6239319
2,1, 7,21, 0, 2,15.00,30.00,SummerDesignDay
8,19.42999267578125
11,1184146359.01564
214,539260566.3104253
2,1, 7,21, 0, 2,30.00,45.00,SummerDesignDay
8,19.336990356445314
11,1182162645.9317406
214,539260566.3104253
2,1, 7,21, 0, 2,45.00,60.00,SummerDesignDay
8,19.243988037109376
11,1179786250.59297
214,539260566.3104253
2,1, 7,21, 0, 2, 0.00,60.00,SummerDesignDay
636,24.32223489312341
676,24.08038427758587
716,26.16745529339812
2,1, 7,21, 0, 3, 0.00,15.00,SummerDesignDay
8,19.174240112304689
11,1177456527.882229
214,539260566.3104253
2,1, 7,21, 0, 3,15.00,30.00,SummerDesignDay
8,19.1044921875
11,1175279627.6807748
214,539260566.3104253
2,1, 7,21, 0, 3,30.00,45.00,SummerDesignDay
8,19.034744262695314
11,1173117850.9115246
214,539260566.3104253
2,1, 7,21, 0, 3,45.00,60.00,SummerDesignDay
8,18.96499632356402
11,1171175077.4616416
214,539260566.3104253
2,1, 7,21, 0, 3, 0.00,60.00,SummerDesignDay
636,24.318909887262998
676,24.067668491765624
716,26.186596935149038
2,1, 7,21, 0, 4, 0.00,15.00,SummerDesignDay
8,18.89524540049439
11,1168866087.133393
214,539260566.3104253
2,1, 7,21, 0, 4,15.00,30.00,SummerDesignDay
8,18.825485229492189
11,1166743738.9336253
214,539260566.3104253
2,1, 7,21, 0, 4,30.00,45.00,SummerDesignDay
8,18.7557373046875
11,1164810504.7642146
214,539260566.3104253
2,1, 7,21, 0, 4,45.00,60.00,SummerDesignDay
8,18.685989379882814
11,1162512442.0053378
214,539260566.3104253
2,1, 7,21, 0, 4, 0.00,60.00,SummerDesignDay
636,24.31388215881674
676,24.055076969234614
716,26.180285607167538
2,1, 7,21, 0, 5, 0.00,15.00,SummerDesignDay
8,18.63949530606028
11,1161077590.6279228
214,539260566.3104253
2,1, 7,21, 0, 5,15.00,30.00,SummerDesignDay
8,18.592987060546876
11,1159844243.4829343
214,539260566.3104253
2,1, 7,21, 0, 5,30.00,45.00,SummerDesignDay
8,18.54649177908492
11,1158253057.2109495
214,539260566.3104253
2,1, 7,21, 0, 5,45.00,60.00,SummerDesignDay
8,18.49999810986028
11,1123532398.991815
214,539260566.3104253
2,1, 7,21, 0, 5, 0.00,60.00,SummerDesignDay
636,24.30945732604494
676,24.043722015186856
716,26.171120055550398
2,1, 7,21, 0, 6, 0.00,15.00,SummerDesignDay
8,18.54649177908492
11,1123437400.2053426
214,539260566.3104253
2,1, 7,21, 0, 6,15.00,30.00,SummerDesignDay
8,18.592987060546876
11,1119524783.227647
214,539260566.3104253
2,1, 7,21, 0, 6,30.00,45.00,SummerDesignDay
8,18.63949530606028
11,1103019378.2362233
214,539260566.3104253
2,1, 7,21, 0, 6,45.00,60.00,SummerDesignDay
8,18.685989379882814
11,1096634821.7340477
214,539260566.3104253
2,1, 7,21, 0, 6, 0.00,60.00,SummerDesignDay
636,24.32278769949314
676,24.07657090749699
716,26.232224186878225
2,1, 7,21, 0, 7, 0.00,15.00,SummerDesignDay
8,18.848739624023439
11,1130042366.5795334
214,960036510.5385352
2,1, 7,21, 0, 7,15.00,30.00,SummerDesignDay
8,19.011489868164064
11,1120828777.7924317
214,952205825.651061
2,1, 7,21, 0, 7,30.00,45.00,SummerDesignDay
8,19.174240112304689
11,1132765251.8819595
214,952176501.566581
2,1, 7,21, 0, 7,45.00,60.00,SummerDesignDay
8,19.336990356445314
11,1136900331.2941213
214,952146780.30621
2,1, 7,21, 0, 7, 0.00,60.00,SummerDesignDay
636,24.02209367624991
676,24.000078493821375
716,26.017135576895087
2,1, 7,21, 0, 8, 0.00,15.00,SummerDesignDay
8,19.73223876953125
11,1243300576.6293905
214,1094237536.7309888
2,1, 7,21, 0, 8,15.00,30.00,SummerDesignDay
8,20.127487182617189
11,1259083661.6464172
214,1094257472.2647618
2,1, 7,21, 0, 8,30.00,45.00,SummerDesignDay
8,20.522735595703126
11,1274854503.613181
214,1018315129.5080307
2,1, 7,21, 0, 8,45.00,60.00,SummerDesignDay
8,20.917992548817627
11,1290613098.8615533
214,1078213391.9071313
2,1, 7,21, 0, 8, 0.00,60.00,SummerDesignDay
636,23.988123297399363
676,23.988560070743654
716,25.98535174598844
2,1, 7,21, 0, 9, 0.00,15.00,SummerDesignDay
8,21.35974061960832
11,1300724179.7519949
214,1091963093.0631033
2,1, 7,21, 0, 9,15.00,30.00,SummerDesignDay
8,21.80149265905943
11,1317593726.2752217
214,1091998359.3354784
2,1, 7,21, 0, 9,30.00,45.00,SummerDesignDay
8,22.243240356445314
11,1335235446.221781
214,997847425.7194412
2,1, 7,21, 0, 9,45.00,60.00,SummerDesignDay
8,22.420023807696297
11,1344609985.3916379
214,1091946990.3342212
2,1, 7,21, 0, 9, 0.00,60.00,SummerDesignDay
636,23.98808620737153
676,23.988472537150359
716,25.98466764836087
2,1, 7,21, 0,10, 0.00,15.00,SummerDesignDay
8,22.52939429544905
11,1333583301.3427959
214,1078045668.458099
2,1, 7,21, 0,10,15.00,30.00,SummerDesignDay
8,22.638294333869877
11,1339650296.8626064
214,997293270.8918492
2,1, 7,21, 0,10,30.00,45.00,SummerDesignDay
8,22.74672657663008
11,1344397824.552059
214,1087149918.5727339
2,1, 7,21, 0,10,45.00,60.00,SummerDesignDay
8,22.854695006230427
11,1351007295.5752393
214,988208489.9695411
2,1, 7,21, 0,10, 0.00,60.00,SummerDesignDay
636,23.98827655875468
676,23.98848210763819
716,25.984414291384277
2,1, 7,21, 0,11, 0.00,15.00,SummerDesignDay
8,22.949580571591015
11,1349258488.0802112
214,1053603691.0063882
2,1, 7,21, 0,11,15.00,30.00,SummerDesignDay
8,23.0441059976386
11,1361377202.1632343
214,1013863424.1543148
2,1, 7,21, 0,11,30.00,45.00,SummerDesignDay
8,23.138280905067519
11,1367568356.5786184
214,991210954.8464255
2,1, 7,21, 0,11,45.00,60.00,SummerDesignDay
8,23.232104587122938
11,1370869125.0743366
214,1076206733.9833594
2,1, 7,21, 0,11, 0.00,60.00,SummerDesignDay
636,24.0272277297573
676,23.988515727484953
716,25.984464177334659
2,1, 7,21, 0,12, 0.00,15.00,SummerDesignDay
8,23.294458182257715
11,1380522060.2644003
214,988159387.8567093
2,1, 7,21, 0,12,15.00,30.00,SummerDesignDay
8,23.356656880409554
11,1382847010.0770448
214,1087119313.536305
2,1, 7,21, 0,12,30.00,45.00,SummerDesignDay
8,23.41870192494561
11,1384794275.0648373
214,988153246.1761719
2,1, 7,21, 0,12,45.00,60.00,SummerDesignDay
8,23.480593542408348
11,1395725877.428222
214,1087115888.4942036
2,1, 7,21, 0,12, 0.00,60.00,SummerDesignDay
636,24.185485550216926
676,23.98847635436924
716,25.984452358890679
2,1, 7,21, 0,13, 0.00,15.00,SummerDesignDay
8,23.529998675577663
11,1390831382.6565753
214,982937078.6143104
2,1, 7,21, 0,13,15.00,30.00,SummerDesignDay
8,23.579306427538606
11,1394468207.7998088
214,1084516821.753842
2,1, 7,21, 0,13,30.00,45.00,SummerDesignDay
8,23.62851242394268
11,1398550762.8835817
214,982977092.394002
2,1, 7,21, 0,13,45.00,60.00,SummerDesignDay
8,23.677626430315248
11,1402419110.1810988
214,1060116930.7655877
2,1, 7,21, 0,13, 0.00,60.00,SummerDesignDay
636,24.330916180128189
676,23.988371142754639
716,25.984357299839688
2,1, 7,21, 0,14, 0.00,15.00,SummerDesignDay
8,23.708274654966226
11,1398174857.2372895
214,1002529782.6913569
2,1, 7,21, 0,14,15.00,30.00,SummerDesignDay
8,23.738881563111908
11,1401582833.442852
214,977433858.2211379
2,1, 7,21, 0,14,30.00,45.00,SummerDesignDay
8,23.76945433566311
11,1404906434.2101052
214,1067527302.9496858
2,1, 7,21, 0,14,45.00,60.00,SummerDesignDay
8,23.799986320868798
11,1408658638.1076706
214,991718161.0262284
2,1, 7,21, 0,14, 0.00,60.00,SummerDesignDay
636,24.499848317862609
676,23.9883549756565
716,25.984370289327033
2,1, 7,21, 0,15, 0.00,15.00,SummerDesignDay
8,23.799986320868798
11,1402331452.744544
214,971628995.0112578
2,1, 7,21, 0,15,15.00,30.00,SummerDesignDay
8,23.799986320868798
11,1403403111.4133194
214,1016244884.2234492
2,1, 7,21, 0,15,30.00,45.00,SummerDesignDay
8,23.799986320868798
11,1405191580.6779793
214,1034211294.1341297
2,1, 7,21, 0,15,45.00,60.00,SummerDesignDay
8,23.799986320868798
11,1407262282.4638987
214,971687435.0615914
2,1, 7,21, 0,15, 0.00,60.00,SummerDesignDay
636,24.62495461649185
676,23.988587699738099
716,25.984423355612337
2,1, 7,21, 0,16, 0.00,15.00,SummerDesignDay
8,23.763342191943058
11,1398550823.2795406
214,971607264.6501143
2,1, 7,21, 0,16,15.00,30.00,SummerDesignDay
8,23.726643883214217
11,1404498215.7957195
214,1042944035.4200795
2,1, 7,21, 0,16,30.00,45.00,SummerDesignDay
8,23.689888257911428
11,1403334855.916127
214,1007547467.1527948
2,1, 7,21, 0,16,45.00,60.00,SummerDesignDay
8,23.653081835774505
11,1400937376.9334243
214,971666423.8444843
2,1, 7,21, 0,16, 0.00,60.00,SummerDesignDay
636,24.645193230365348
676,23.988621866904695
716,25.984501656360878
2,1, 7,21, 0,17, 0.00,15.00,SummerDesignDay
8,23.603923719146495
11,1398068176.0181533
214,971585259.123675
2,1, 7,21, 0,17,15.00,30.00,SummerDesignDay
8,23.55466446732659
11,1395126944.3768104
214,1069662256.904639
2,1, 7,21, 0,17,30.00,45.00,SummerDesignDay
8,23.505308555416005
11,1392060336.092652
214,980884283.8649545
2,1, 7,21, 0,17,45.00,60.00,SummerDesignDay
8,23.4558543827806
11,1388813194.5789273
214,971645157.2476417
2,1, 7,21, 0,17, 0.00,60.00,SummerDesignDay
636,24.565750640837594
676,23.988528454057467
716,25.984564064464803
2,1, 7,21, 0,18, 0.00,15.00,SummerDesignDay
8,23.393901322312414
11,1400085769.7790654
214,1070230418.7138095
2,1, 7,21, 0,18,15.00,30.00,SummerDesignDay
8,23.33179517863699
11,1399518881.1387697
214,997267767.7963605
2,1, 7,21, 0,18,30.00,45.00,SummerDesignDay
8,23.269534315322305
11,1393852962.3886133
214,1007793829.6995101
2,1, 7,21, 0,18,45.00,60.00,SummerDesignDay
8,23.207119318496696
11,1396042363.1760917
214,1059626793.7778638
2,1, 7,21, 0,18, 0.00,60.00,SummerDesignDay
636,24.412331592566149
676,23.9885988710511
716,25.984623336594287
2,1, 7,21, 0,19, 0.00,15.00,SummerDesignDay
8,23.11320144187493
11,1417746590.7919913
214,1077079985.60165
2,1, 7,21, 0,19,15.00,30.00,SummerDesignDay
8,23.0189367248522
11,1417144033.2809618
214,1012761757.6509401
2,1, 7,21, 0,19,30.00,45.00,SummerDesignDay
8,22.924312313607478
11,1416049759.636312
214,1091960754.4886666
2,1, 7,21, 0,19,45.00,60.00,SummerDesignDay
8,22.82933132300861
11,1419295454.7408906
214,1091996188.339867
2,1, 7,21, 0,19, 0.00,60.00,SummerDesignDay
636,24.185193596876006
676,23.988627157164879
716,25.984628847980767
2,1, 7,21, 0,20, 0.00,15.00,SummerDesignDay
8,22.75945089348938
11,1434516307.5588833
214,1048981488.2803056
2,1, 7,21, 0,20,15.00,30.00,SummerDesignDay
8,22.689380537094857
11,1412735280.7457305
214,1047560777.8379152
2,1, 7,21, 0,20,30.00,45.00,SummerDesignDay
8,22.6191110648834
11,1452461203.7364126
214,1094199441.535698
2,1, 7,21, 0,20,45.00,60.00,SummerDesignDay
8,22.548645905899027
11,1446180970.1000872
214,1094221319.181016
2,1, 7,21, 0,20, 0.00,60.00,SummerDesignDay
636,23.999942326939839
676,23.988572134460818
716,25.984626985548286
2,1, 7,21, 0,21, 0.00,15.00,SummerDesignDay
8,22.490844247869313
11,1425055569.2749656
214,1067728712.622172
2,1, 7,21, 0,21,15.00,30.00,SummerDesignDay
8,22.43291428736413
11,1421410216.6802068
214,1015024529.6827612
2,1, 7,21, 0,21,30.00,45.00,SummerDesignDay
8,22.374851547664414
11,1417329664.8926843
214,1089618554.5651897
2,1, 7,21, 0,21,45.00,60.00,SummerDesignDay
8,22.312987690310977
11,1412955664.947149
214,993118885.1701334
2,1, 7,21, 0,21, 0.00,60.00,SummerDesignDay
636,23.988111086351787
676,23.98842374811216
716,25.984486768076608
2,1, 7,21, 0,22, 0.00,15.00,SummerDesignDay
8,22.103744506835939
11,1413083849.220612
214,1091946059.9411712
2,1, 7,21, 0,22,15.00,30.00,SummerDesignDay
8,21.894485473632814
11,1404179188.7357629
214,1091982546.482315
2,1, 7,21, 0,22,30.00,45.00,SummerDesignDay
8,21.685237627773917
11,1395027408.8770657
214,1051792020.0517843
2,1, 7,21, 0,22,45.00,60.00,SummerDesignDay
8,21.475995587251039
11,1387209446.272883
214,1038013439.3091731
2,1, 7,21, 0,22, 0.00,60.00,SummerDesignDay
636,23.98800413372184
676,23.988375939022917
716,25.98446626688767
2,1, 7,21, 0,23, 0.00,15.00,SummerDesignDay
8,21.313245597319697
11,1363756881.80839
214,1087135962.0138479
2,1, 7,21, 0,23,15.00,30.00,SummerDesignDay
8,21.150492515933274
11,1357178460.48912
214,988183298.3613948
2,1, 7,21, 0,23,30.00,45.00,SummerDesignDay
8,20.98774680278067
11,1350713868.1239856
214,1087132647.6619788
2,1, 7,21, 0,23,45.00,60.00,SummerDesignDay
8,20.824995071347869
11,1344259898.3711758
214,988177315.7651364
2,1, 7,21, 0,23, 0.00,60.00,SummerDesignDay
636,23.98797075269929
676,23.98837400416246
716,25.98463729246062
2,1, 7,21, 0,24, 0.00,15.00,SummerDesignDay
8,20.662246704101564
11,1305699818.8285309
214,994817899.5976899
2,1, 7,21, 0,24,15.00,30.00,SummerDesignDay
8,20.499496459960939
11,1299541952.678003
214,1037323800.0238857
2,1, 7,21, 0,24,30.00,45.00,SummerDesignDay
8,20.336746215820314
11,1293515983.4630523
214,974653668.5320582
2,1, 7,21, 0,24,45.00,60.00,SummerDesignDay
8,20.173995840857065
11,1287459949.2890642
214,965536934.7648167
2,1, 7,21, 0,24, 0.00,60.00,SummerDesignDay
636,23.987931123711193
676,23.988373619335058
716,25.984798351838287
3,1, 7,21, 0,SummerDesignDay
637,63.139544054052219,60.75583178735997,10,15,66.49714401552285,15,30
677,59.78181521648619,58.88818922896388,17,30,60.39726816248252, 1,60
717,53.804835275278488,53.001206672269997,16,60,54.51484044425374,22,15
4,1, 7
7,22.812875000000003,18.5,21, 5,60,27.8,21,14,60
1,BUFFALO NIAGARA INTL AP ANN HTG 99.6% CONDNS DB 1,  42.93, -78.73,  -5.00, 215.00
2,1, 1,21, 0, 1, 0.00,15.00,WinterDesignDay
8,-16.3
11,255342505.7645956
214,2267956489.031919
2,1, 1,21, 0, 1,15.00,30.00,WinterDesignDay
8,-16.3
11,255443544.71697448
214,2316233746.641422
2,1, 1,21, 0, 1,30.00,45.00,WinterDesignDay
8,-16.3
11,255455774.21548895
214,2337410776.7782156
2,1, 1,21, 0, 1,45.00,60.00,WinterDesignDay
8,-16.3
11,255449631.57944436
214,2337424851.1292445
2,1, 1,21, 0, 1, 0.00,60.00,WinterDesignDay
636,18.727212151337495
676,20.997507188584775
716,19.007271292765269
2,1, 1,21, 0, 2, 0.00,15.00,WinterDesignDay
8,-16.3
11,223375709.5366183
214,1826383908.1362777
2,1, 1,21, 0, 2,15.00,30.00,WinterDesignDay
8,-16.3
11,223190235.39599089
214,1781246921.2444716
2,1, 1,21, 0, 2,30.00,45.00,WinterDesignDay
8,-16.3
11,223190235.39613749
214,1781246915.9878233
2,1, 1,21, 0, 2,45.00,60.00,WinterDesignDay
8,-16.3
11,223375692.14862127
214,1781246912.222321
2,1, 1,21, 0, 2, 0.00,60.00,WinterDesignDay
636,18.727044193284795
676,20.997502765601717
716,19.007343696041958
2,1, 1,21, 0, 3, 0.00,15.00,WinterDesignDay
8,-16.3
11,223190235.3963112
214,1781246909.757642
2,1, 1,21, 0, 3,15.00,30.00,WinterDesignDay
8,-16.3
11,223190235.39634816
214,1781246908.4324814
2,1, 1,21, 0, 3,30.00,45.00,WinterDesignDay
8,-16.3
11,223375674.72141088
214,1781246908.109331
2,1, 1,21, 0, 3,45.00,60.00,WinterDesignDay
8,-16.3
11,223190235.39634154
214,1781246908.6700223
2,1, 1,21, 0, 3, 0.00,60.00,WinterDesignDay
636,18.72688339463697