Program Version,EnergyPlus, Version 9.1.0-fafb9d5652, YMD=2020.03.25 14:42
1,5,Environment Title[],Latitude[deg],Longitude[deg],Time Zone[],Elevation[m]
2,8,Day of Simulation[],Month[],Day of Month[],DST Indicator[1=yes 0=no],Hour[],StartMinute[],EndMinute[],DayType
3,5,Cumulative Day of Simulation[],Month[],Day of Month[],DST Indicator[1=yes 0=no],DayType  ! When Daily Report Variables Requested
4,2,Cumulative Days of Simulation[],Month[]  ! When Monthly Report Variables Requested
5,1,Cumulative Days of Simulation[] ! When Run Period Report Variables Requested
6,1,Calendar Year of Simulation[] ! When Annual Report Variables Requested
7,9,Environment,Site Outdoor Air Drybulb Temperature [C] !Monthly [Value,Min,Day,Hour,Minute,Max,Day,Hour,Minute]
8,1,Environment,Site Outdoor Air Wetbulb Temperature [C] !TimeStep
636,1,BUILDING STORY 1 THERMALZONE,Zone Air Temperature [C] !Hourly
637,7,BUILDING STORY 1 THERMALZONE,Zone Air Relative Humidity [%] !Daily [Value,Min,Hour,Minute,Max,Hour,Minute]
676,1,BUILDING STORY 2 THERMALZONE,Zone Air Temperature [C] !Hourly
677,7,BUILDING STORY 2 THERMALZONE,Zone Air Relative Humidity [%] !Daily [Value,Min,Hour,Minute,Max,Hour,Minute]
716,1,BUILDING STORY 3 THERMALZONE,Zone Air Temperature [C] !Hourly
717,7,BUILDING STORY 3 THERMALZONE,Zone Air Relative Humidity [%] !Daily [Value,Min,Hour,Minute,Max,Hour,Minute]
11,1,Electricity:Facility [J] !TimeStep
214,1,Gas:Facility [J] !TimeStep
End of Data Dictionary
1,BUFFALO NIAGARA INTL AP ANN CLG .4% CONDNS DB=>MWB 1,  42.93, -78.73,  -5.00, 215.00
2,1, 7,21, 0, 1, 0.00,60.00,SummerDesignDay
8,19.36840579326866
11,4949426849.884256
214,3836421286.946823
2,1, 7,21, 0, 1, 0.00,60.00,SummerDesignDay
636,24.20879113301577
676,24.09159856154526
716,25.979459062278229
2,1, 7,21, 0, 2, 0.00,60.00,SummerDesignDay
8,19.25226217922265
11,4768695576.060951
214,2219103196.192324
2,1, 7,21, 0, 2, 0.00,60.00,SummerDesignDay
636,24.224334187980156
676,24.088655772877176
716,26.14851371623602
2,1, 7,21, 0, 3, 0.00,60.00,SummerDesignDay
8,19.164819553782637
11,4762215628.234992
214,2157042265.241701
2,1, 7,21, 0, 3, 0.00,60.00,SummerDesignDay
636,24.202191726597449
676,24.068846067725194
716,26.182574247343604
2,1, 7,21, 0, 4, 0.00,60.00,SummerDesignDay
8,19.0770792448193
11,4752738651.314677
214,2157042265.241701
2,1, 7,21, 0, 4, 0.00,60.00,SummerDesignDay
636,24.199895712323426
676,24.057852127221268
716,26.173144969013344
2,1, 7,21, 0, 5, 0.00,60.00,SummerDesignDay
8,19.018427637799467
11,4744037111.705443
214,2157042265.241701
2,1, 7,21, 0, 5, 0.00,60.00,SummerDesignDay
636,24.19561095160661
676,24.047014912011698
716,26.161888626695278
2,1, 7,21, 0, 6, 0.00,60.00,SummerDesignDay
8,19.0770792448193
11,4618772689.661768
214,2157042265.241701
2,1, 7,21, 0, 6, 0.00,60.00,SummerDesignDay
636,24.264138221229464
676,24.107880833297818
716,26.243622940333105
2,1, 7,21, 0, 7, 0.00,60.00,SummerDesignDay
8,19.281346189070228
11,4744750284.482905
214,3816667277.4055049
2,1, 7,21, 0, 7, 0.00,60.00,SummerDesignDay
636,24.09327793164379
676,24.03355317393954
716,26.084436671631189
2,1, 7,21, 0, 8, 0.00,60.00,SummerDesignDay
8,19.770887505670989
11,5231164748.877585
214,4284973305.3114244
2,1, 7,21, 0, 8, 0.00,60.00,SummerDesignDay
636,24.02510690935607
676,24.003187699911508
716,26.021209553181785
2,1, 7,21, 0, 9, 0.00,60.00,SummerDesignDay
8,20.30732185289352
11,5333641821.343779
214,4273601095.9352166
2,1, 7,21, 0, 9, 0.00,60.00,SummerDesignDay
636,23.998576491095429
676,23.990999300228088
716,25.996174942715919
2,1, 7,21, 0,10, 0.00,60.00,SummerDesignDay
8,20.778037156782458
11,5371025990.060083
214,4150489513.2177565
2,1, 7,21, 0,10, 0.00,60.00,SummerDesignDay
636,23.988325536939877
676,23.986181195522609
716,25.986217943299459
2,1, 7,21, 0,11, 0.00,60.00,SummerDesignDay
8,21.186337137460165
11,5468610716.440827
214,4134814994.2796
2,1, 7,21, 0,11, 0.00,60.00,SummerDesignDay
636,23.984336209595577
676,23.9842801622394
716,25.98228847492898
2,1, 7,21, 0,12, 0.00,60.00,SummerDesignDay
8,21.45495938709981
11,5545049783.561248
214,4150692483.0432245
2,1, 7,21, 0,12, 0.00,60.00,SummerDesignDay
636,23.98280687330608
676,23.983551564719578
716,25.980743505044808
2,1, 7,21, 0,13, 0.00,60.00,SummerDesignDay
8,21.667839996742449
11,5578509444.23073
214,4110426024.2589447
2,1, 7,21, 0,13, 0.00,60.00,SummerDesignDay
636,23.98205518601467
676,23.983148191926419
716,25.979999316652
2,1, 7,21, 0,14, 0.00,60.00,SummerDesignDay
8,21.799990419629109
11,5624114536.982021
214,4039476372.5990889
2,1, 7,21, 0,14, 0.00,60.00,SummerDesignDay
636,23.981572548738165
676,23.98283633377258
716,25.979534768759597
2,1, 7,21, 0,15, 0.00,60.00,SummerDesignDay
8,21.799990419629109
11,5576166373.284342
214,3993809817.7852876
2,1, 7,21, 0,15, 0.00,60.00,SummerDesignDay
636,23.981469507259484
676,23.98274938145849
716,25.979333059678046
2,1, 7,21, 0,16, 0.00,60.00,SummerDesignDay
8,21.641326796728476
11,5549112234.334985
214,3993734039.211646
2,1, 7,21, 0,16, 0.00,60.00,SummerDesignDay
636,23.981508639256704
676,23.982775198230635
716,25.979358585171196
2,1, 7,21, 0,17, 0.00,60.00,SummerDesignDay
8,21.42822317147698
11,5523826166.260988
214,3993656945.7305948
2,1, 7,21, 0,17, 0.00,60.00,SummerDesignDay
636,23.981547213127017
676,23.982865040781513
716,25.979492140428769
2,1, 7,21, 0,18, 0.00,60.00,SummerDesignDay
8,21.15931786227956
11,5520914094.519016
214,4134781548.7662727
2,1, 7,21, 0,18, 0.00,60.00,SummerDesignDay
636,23.981746012277325
676,23.982959027778404
716,25.97967727652736
2,1, 7,21, 0,19, 0.00,60.00,SummerDesignDay
8,20.750583661392644
11,5518850762.890309
214,4273838941.8900625
2,1, 7,21, 0,19, 0.00,60.00,SummerDesignDay
636,23.98193406502877
676,23.983099107462246
716,25.979925832432984
2,1, 7,21, 0,20, 0.00,60.00,SummerDesignDay
8,20.446661088459409
11,5401776870.762655
214,4285138807.8027756
2,1, 7,21, 0,20, 0.00,60.00,SummerDesignDay
636,23.982154387936317
676,23.983315859895396
716,25.98017620578369
2,1, 7,21, 0,21, 0.00,60.00,SummerDesignDay
8,20.19530361990708
11,5449230864.653352
214,4165443066.9506657
2,1, 7,21, 0,21, 0.00,60.00,SummerDesignDay
636,23.981938687303768
676,23.98320891610893
716,25.980051969402049
2,1, 7,21, 0,22, 0.00,60.00,SummerDesignDay
8,19.941485234887624
11,5422902162.7826
214,4273515669.3861677
2,1, 7,21, 0,22, 0.00,60.00,SummerDesignDay
636,23.981584239189695
676,23.982969617801609
716,25.979791166298854
2,1, 7,21, 0,23, 0.00,60.00,SummerDesignDay
8,19.7423381019073
11,5308388611.701854
214,4150386069.848652
2,1, 7,21, 0,23, 0.00,60.00,SummerDesignDay
636,23.981339921202957
676,23.982802513152437
716,25.979614894471646
2,1, 7,21, 0,24, 0.00,60.00,SummerDesignDay
8,19.54165603023991
11,5133202767.915893
214,3972029824.0391719
2,1, 7,21, 0,24, 0.00,60.00,SummerDesignDay
636,23.98120940305229
676,23.98270709839878
716,25.979521672148129
3,1, 7,21, 0,SummerDesignDay
637,60.8348150416494,59.876910289515588,18,60,61.9413720026056, 3,60
677,59.053142090884488,58.33218251825991,18,60,59.81464311580127, 5,60
717,52.63026924415988,51.75046425518435,17,60,53.450167773132587, 5,60
4,1, 7
7,25.312875000000003,21.0,21, 5,60,30.3,21,14,60
1,BUFFALO NIAGARA INTL AP ANN CLG .4% CONDNS WB=>MDB 1,  42.93, -78.73,  -5.00, 215.00
2,1, 7,21, 0, 1, 0.00,60.00,SummerDesignDay
8,19.615996954992807
11,4946017176.959223
214,3836421286.946823
2,1, 7,21, 0, 1, 0.00,60.00,SummerDesignDay
636,24.21664199234778
676,24.050795049478855
716,25.978430383670504
2,1, 7,21, 0, 2, 0.00,60.00,SummerDesignDay
8,19.243988037109376
11,4752184639.649317
214,2219103196.192324
2,1, 7,21, 0, 2, 0.00,60.00,SummerDesignDay
636,24.22977673673108
676,24.04274402156754
716,26.055014606112477
2,1, 7,21, 0, 3, 0.00,60.00,SummerDesignDay
8,18.96499632356402
11,4722048557.670941
214,2157042265.241701
2,1, 7,21, 0, 3, 0.00,60.00,SummerDesignDay
636,24.204313180287135
676,24.024347593909057
716,26.058134726142755
2,1, 7,21, 0, 4, 0.00,60.00,SummerDesignDay
8,18.685989379882814
11,4689899673.792114
214,2157042265.241701
2,1, 7,21, 0, 4, 0.00,60.00,SummerDesignDay
636,24.199454614434928
676,24.011923729438803
716,26.039821397228186
2,1, 7,21, 0, 5, 0.00,60.00,SummerDesignDay
8,18.49999810986028
11,4666811824.813271
214,2157042265.241701
2,1, 7,21, 0, 5, 0.00,60.00,SummerDesignDay
636,24.192563688088997
676,23.999808629274776
716,26.02159437737419
2,1, 7,21, 0, 6, 0.00,60.00,SummerDesignDay
8,18.685989379882814
11,4553562810.909017
214,2157042265.241701
2,1, 7,21, 0, 6, 0.00,60.00,SummerDesignDay
636,24.25757486048366
676,24.05777472421805
716,26.097240691310888
2,1, 7,21, 0, 7, 0.00,60.00,SummerDesignDay
8,19.336990356445314
11,4702783704.738808
214,3816667277.4055049
2,1, 7,21, 0, 7, 0.00,60.00,SummerDesignDay
636,24.090597208890637
676,24.012956262502816
716,26.0253453157829
2,1, 7,21, 0, 8, 0.00,60.00,SummerDesignDay
8,20.917992548817627
11,5309367813.376747
214,4284973305.3114244
2,1, 7,21, 0, 8, 0.00,60.00,SummerDesignDay
636,24.0240142723539
676,23.994729629855557
716,25.997057424624758
2,1, 7,21, 0, 9, 0.00,60.00,SummerDesignDay
8,22.420023807696297
11,5532422369.937548
214,4273601095.9352166
2,1, 7,21, 0, 9, 0.00,60.00,SummerDesignDay
636,23.998086855391084
676,23.987380044660005
716,25.985732834619328
2,1, 7,21, 0,10, 0.00,60.00,SummerDesignDay
8,22.854695006230427
11,5565732152.750496
214,4150489513.2177565
2,1, 7,21, 0,10, 0.00,60.00,SummerDesignDay
636,23.98805833754029
676,23.984444747346268
716,25.980967078925713
2,1, 7,21, 0,11, 0.00,60.00,SummerDesignDay
8,23.232104587122938
11,5688993069.100829
214,4134814994.2796
2,1, 7,21, 0,11, 0.00,60.00,SummerDesignDay
636,23.98801941783886
676,23.983306995504873
716,25.979125697634637
2,1, 7,21, 0,12, 0.00,60.00,SummerDesignDay
8,23.480593542408348
11,5777948499.536765
214,4150692483.0432245
2,1, 7,21, 0,12, 0.00,60.00,SummerDesignDay
636,24.083914110409155
676,23.982920790421013
716,25.978480976155465
2,1, 7,21, 0,13, 0.00,60.00,SummerDesignDay
8,23.677626430315248
11,5792687803.256274
214,4110426024.2589447
2,1, 7,21, 0,13, 0.00,60.00,SummerDesignDay
636,24.24139355040699
676,23.98266038454531
716,25.97809587760782
2,1, 7,21, 0,14, 0.00,60.00,SummerDesignDay
8,23.799986320868798
11,5814824595.28576
214,4039476372.5990889
2,1, 7,21, 0,14, 0.00,60.00,SummerDesignDay
636,24.399693362486109
676,23.98240669979553
716,25.977765784783715
2,1, 7,21, 0,15, 0.00,60.00,SummerDesignDay
8,23.799986320868798
11,5761004979.5602869
214,3993809817.7852876
2,1, 7,21, 0,15, 0.00,60.00,SummerDesignDay
636,24.47117195936087
676,23.982360395536398
716,25.977635723065526
2,1, 7,21, 0,16, 0.00,60.00,SummerDesignDay
8,23.653081835774505
11,5741665404.360557
214,3993734039.211646
2,1, 7,21, 0,16, 0.00,60.00,SummerDesignDay
636,24.47090119103233
676,23.982417399775018
716,25.977717347412694
2,1, 7,21, 0,17, 0.00,60.00,SummerDesignDay
8,23.4558543827806
11,5726936271.100635
214,3993656945.7305948
2,1, 7,21, 0,17, 0.00,60.00,SummerDesignDay
636,24.440360623629286
676,23.98253062384359
716,25.977889361243837
2,1, 7,21, 0,18, 0.00,60.00,SummerDesignDay
8,23.207119318496696
11,5751789018.135981
214,4134781548.7662727
2,1, 7,21, 0,18, 0.00,60.00,SummerDesignDay
636,24.313345022733388
676,23.98264169461382
716,25.97810561877309
2,1, 7,21, 0,19, 0.00,60.00,SummerDesignDay
8,22.82933132300861
11,5720011380.161047
214,4273838941.8900625
2,1, 7,21, 0,19, 0.00,60.00,SummerDesignDay
636,24.11036312794559
676,23.982809841430084
716,25.978392082713009
2,1, 7,21, 0,20, 0.00,60.00,SummerDesignDay
8,22.548645905899027
11,5611246156.716684
214,4285138807.8027756
2,1, 7,21, 0,20, 0.00,60.00,SummerDesignDay
636,24.031059703906697
676,23.983031874263089
716,25.978662657019905
2,1, 7,21, 0,21, 0.00,60.00,SummerDesignDay
8,22.312987690310977
11,5664602370.655302
214,4165443066.9506657
2,1, 7,21, 0,21, 0.00,60.00,SummerDesignDay
636,24.001160419950847
676,23.98290571999824
716,25.978500119282719
2,1, 7,21, 0,22, 0.00,60.00,SummerDesignDay
8,21.475995587251039
11,5567243613.015517
214,4273515669.3861677
2,1, 7,21, 0,22, 0.00,60.00,SummerDesignDay
636,23.98917945592551
676,23.982627575263448
716,25.97816637483026
2,1, 7,21, 0,23, 0.00,60.00,SummerDesignDay
8,20.824995071347869
11,5397620215.068173
214,4150386069.848652
2,1, 7,21, 0,23, 0.00,60.00,SummerDesignDay
636,23.98427750569137
676,23.982458877939764
716,25.97812215857641
2,1, 7,21, 0,24, 0.00,60.00,SummerDesignDay
8,20.173995840857065
11,5168755279.788861
214,3972029824.0391719
2,1, 7,21, 0,24, 0.00,60.00,SummerDesignDay
636,23.982302208982487
676,23.982381588951865
716,25.978254837061763
3,1, 7,21, 0,SummerDesignDay
637,62.56748458767479,60.546935915681768,10,60,65.60709016534234,15,60
677,59.56796187346762,58.87485310106031,17,60,60.13780493287716, 3,60
717,53.701053248593947,53.00516826702918,17,60,54.30604678146241,21,60
4,1, 7
7,22.812875000000003,18.5,21, 5,60,27.8,21,14,60
1,BUFFALO NIAGARA INTL AP ANN HTG 99.6% CONDNS DB 1,  42.93, -78.73,  -5.00, 215.00
2,1, 1,21, 0, 1, 0.00,60.00,WinterDesignDay
8,-16.3
11,1028826720.7447379
214,9295009513.781168
2,1, 1,21, 0, 1, 0.00,60.00,WinterDesignDay
636,19.245251788475426
676,20.998060341451934
716,18.98996771712473
2,1, 1,21, 0, 2, 0.00,60.00,WinterDesignDay
8,-16.3
11,899947476.5704817
214,7205875074.283418
2,1, 1,21, 0, 2, 0.00,60.00,WinterDesignDay
636,19.245054273433444
676,20.998097317859658
716,18.989929461060667
2,1, 1,21, 0, 3, 0.00,60.00,WinterDesignDay
8,-16.3
11,899887601.1637833
214,7160736212.374889
2,1, 1,21, 0, 3, 0.00,60.00,WinterDesignDay
636,19.2448641624254
676,20.99813344987735
716,18.989892319943608
2,1, 1,21, 0, 4, 0.00,60.00,WinterDesignDay
8,-16.3
11,899887641.8302003
214,7160737476.13988
2,1, 1,21, 0, 4, 0.00,60.00,WinterDesignDay
636,19.24468117867215
676,20.998168757891827
716,18.989856261284357
2,1, 1,21, 0, 5, 0.00,60.00,WinterDesignDay
8,-16.3
11,899887682.1516092
214,7160738691.360158
2,1, 1,21, 0, 5, 0.00,60.00,WinterDesignDay
636,19.24450505567634
676,20.998203261621606
716,18.989821253539238
2,1, 1,21, 0, 6, 0.00,60.00,WinterDesignDay
8,-16.3
11,900073183.5354921
214,7160739859.840684
2,1, 1,21, 0, 6, 0.00,60.00,WinterDesignDay
636,19.244335536837693
676,20.99823698016737
716,18.98978726608366
2,1, 1,21, 0, 7, 0.00,60.00,WinterDesignDay
8,-16.3
11,961429669.7331432
214,9261453233.555775
2,1, 1,21, 0, 7, 0.00,60.00,WinterDesignDay
636,19.244172375096665
676,20.998269932051398
716,18.98975426918338
2,1, 1,21, 0, 8, 0.00,60.00,WinterDesignDay
8,-16.3
11,961429710.664222
214,9261437960.358048
2,1, 1,21, 0, 8, 0.00,60.00,WinterDesignDay
636,19.244015332584579
676,20.998302135254446
716,18.989722233971177
2,1, 1,21, 0, 9, 0.00,60.00,WinterDesignDay
8,-16.3
11,766603211.5973368
214,9261422821.205754
2,1, 1,21, 0, 9, 0.00,60.00,WinterDesignDay
636,19.243864180285966
676,20.998333607248456
716,18.989691132420373
2,1, 1,21, 0,10, 0.00,60.00,WinterDesignDay
8,-16.3
11,1094573700.0668343
214,9725391271.507134
2,1, 1,21, 0,10, 0.00,60.00,WinterDesignDay
636,19.243718697714898
676,20.99836436502457
716,18.989660937321358
2,1, 1,21, 0,11, 0.00,60.00,WinterDesignDay
8,-16.3
11,1055073555.164624
214,9669441506.885973
2,1, 1,21, 0,11, 0.00,60.00,WinterDesignDay
636,19.243578672601918
676,20.998394425118549
716,18.98963162225644
2,1, 1,21, 0,12, 0.00,60.00,WinterDesignDay
8,-16.3
11,1086431050.45187
214,9748562789.369454
2,1, 1,21, 0,12, 0.00,60.00,WinterDesignDay
636,19.243443900589825
676,20.99842380362814
716,18.989603161578346
2,1, 1,21, 0,13, 0.00,60.00,WinterDesignDay
8,-16.3
11,1083897893.0082134
214,9748563676.03675
2,1, 1,21, 0,13, 0.00,60.00,WinterDesignDay
636,19.243314184942237
676,20.99845251623851
716,18.9895755303865
2,1, 1,21, 0,14, 0.00,60.00,WinterDesignDay
8,-16.3
11,1054179633.416881
214,9669459203.223124
2,1, 1,21, 0,14, 0.00,60.00,WinterDesignDay
636,19.24318933626543
676,20.99848057823843
716,18.989548704506988
2,1, 1,21, 0,15, 0.00,60.00,WinterDesignDay
8,-16.3
11,1023536966.0036001
214,9586190546.121033
2,1, 1,21, 0,15, 0.00,60.00,WinterDesignDay
636,19.24306917222973
676,20.998508004531993
716,18.98952266046998
2,1, 1,21, 0,16, 0.00,60.00,WinterDesignDay
8,-16.3
11,1023088254.1755134
214,9586158957.950097
2,1, 1,21, 0,16, 0.00,60.00,WinterDesignDay
636,19.242953517315017
676,20.99853480965888
716,18.9894973754889
2,1, 1,21, 0,17, 0.00,60.00,WinterDesignDay
8,-16.3
11,991271806.9175376
214,9581734154.058449
2,1, 1,21, 0,17, 0.00,60.00,WinterDesignDay
636,19.242842202557499
676,20.9985610078039
716,18.989472827441575
2,1, 1,21, 0,18, 0.00,60.00,WinterDesignDay
8,-16.3
11,1218817940.1774073
214,9586220326.262001
2,1, 1,21, 0,18, 0.00,60.00,WinterDesignDay
636,19.242735065303284
676,20.99858661280782
716,18.9894489948504
2,1, 1,21, 0,19, 0.00,60.00,WinterDesignDay
8,-16.3
11,1320590914.8689714
214,9748568316.084277
2,1, 1,21, 0,19, 0.00,60.00,WinterDesignDay
636,19.24263194897965
676,20.998611638181595
716,18.989425856864796
2,1, 1,21, 0,20, 0.00,60.00,WinterDesignDay
8,-16.3
11,1329061515.9770387
214,9748568987.117333
2,1, 1,21, 0,20, 0.00,60.00,WinterDesignDay
636,19.242532702861948
676,20.998636097118298
716,18.98940339323985
2,1, 1,21, 0,21, 0.00,60.00,WinterDesignDay
8,-16.3
11,1287930493.071132
214,9748569631.811472
2,1, 1,21, 0,21, 0.00,60.00,WinterDesignDay
636,19.24243718186346
676,20.998660002494913
716,18.98938158432272
2,1, 1,21, 0,22, 0.00,60.00,WinterDesignDay
8,-16.3
11,1323163159.1519929
214,9748570251.161997
2,1, 1,21, 0,22, 0.00,60.00,WinterDesignDay
636,19.242345246321638
676,20.998683366889695
716,18.989360411031833
2,1, 1,21, 0,23, 0.00,60.00,WinterDesignDay
8,-16.3
11,1217783844.1885052
214,9621880443.749669
2,1, 1,21, 0,23, 0.00,60.00,WinterDesignDay
636,19.242256761798275
676,20.998706202587724
716,18.989339854841256
2,1, 1,21, 0,24, 0.00,60.00,WinterDesignDay
8,-16.3
11,1154691530.2308219
214,9453669872.240105
2,1, 1,21, 0,24, 0.00,60.00,WinterDesignDay
636,19.242171598886899
676,20.998728521587525
716,18.989319897767115
3,1, 1,21, 0,WinterDesignDay
637,6.56646539074394,6.565747964990202, 1,60,6.5670082523745789,24,60
677,5.890663649880946,5.890552860714809,24,60,5.890794584453066, 1,60
717,6.6712719244421099,6.6711224808558768, 1,60,6.671392176132754,24,60
4,1, 1
7,-16.300000000000009,-16.3,21, 1,60,-16.3,21, 1,60
End of Data
 Number of Records Written=         444
