Program Version,EnergyPlus, Version 9.1.0-fafb9d5652, YMD=2020.03.24 18:14
1,5,Environment Title[],Latitude[deg],Longitude[deg],Time Zone[],Elevation[m]
2,8,Day of Simulation[],Month[],Day of Month[],DST Indicator[1=yes 0=no],Hour[],StartMinute[],EndMinute[],DayType
3,5,Cumulative Day of Simulation[],Month[],Day of Month[],DST Indicator[1=yes 0=no],DayType  ! When Daily Report Variables Requested
4,2,Cumulative Days of Simulation[],Month[]  ! When Monthly Report Variables Requested
5,1,Cumulative Days of Simulation[] ! When Run Period Report Variables Requested
6,1,Calendar Year of Simulation[] ! When Annual Report Variables Requested
866,1,BUILDING STORY 3 THERMALZONE FULLSERVICERESTAURANT DINING PEOPLE 1,Zone Thermal Comfort Fanger Model PMV [] !TimeStep
867,1,BUILDING STORY 3 THERMALZONE FULLSERVICERESTAURANT DINING PEOPLE 1,Zone Thermal Comfort Fanger Model PPD [%] !TimeStep
868,1,BUILDING STORY 3 THERMALZONE FULLSERVICERESTAURANT KITCHEN PEOPLE 1,Zone Thermal Comfort Fanger Model PMV [] !TimeStep
869,1,BUILDING STORY 3 THERMALZONE FULLSERVICERESTAURANT KITCHEN PEOPLE 1,Zone Thermal Comfort Fanger Model PPD [%] !TimeStep
870,1,BUILDING STORY 2 THERMALZONE FULLSERVICERESTAURANT DINING PEOPLE 2,Zone Thermal Comfort Fanger Model PMV [] !TimeStep
871,1,BUILDING STORY 2 THERMALZONE FULLSERVICERESTAURANT DINING PEOPLE 2,Zone Thermal Comfort Fanger Model PPD [%] !TimeStep
872,1,BUILDING STORY 1 THERMALZONE FULLSERVICERESTAURANT DINING PEOPLE 3,Zone Thermal Comfort Fanger Model PMV [] !TimeStep
873,1,BUILDING STORY 1 THERMALZONE FULLSERVICERESTAURANT DINING PEOPLE 3,Zone Thermal Comfort Fanger Model PPD [%] !TimeStep
874,1,BUILDING STORY 1 THERMALZONE,Zone Thermal Comfort ASHRAE 55 Simple Model Summer Clothes Not Comfortable Time [hr] !TimeStep
875,1,BUILDING STORY 1 THERMALZONE,Zone Thermal Comfort ASHRAE 55 Simple Model Winter Clothes Not Comfortable Time [hr] !TimeStep
876,1,BUILDING STORY 1 THERMALZONE,Zone Thermal Comfort ASHRAE 55 Simple Model Summer or Winter Clothes Not Comfortable Time [hr] !TimeStep
877,1,BUILDING STORY 2 THERMALZONE,Zone Thermal Comfort ASHRAE 55 Simple Model Summer Clothes Not Comfortable Time [hr] !TimeStep
878,1,BUILDING STORY 2 THERMALZONE,Zone Thermal Comfort ASHRAE 55 Simple Model Winter Clothes Not Comfortable Time [hr] !TimeStep
879,1,BUILDING STORY 2 THERMALZONE,Zone Thermal Comfort ASHRAE 55 Simple Model Summer or Winter Clothes Not Comfortable Time [hr] !TimeStep
880,1,BUILDING STORY 3 THERMALZONE,Zone Thermal Comfort ASHRAE 55 Simple Model Summer Clothes Not Comfortable Time [hr] !TimeStep
881,1,BUILDING STORY 3 THERMALZONE,Zone Thermal Comfort ASHRAE 55 Simple Model Winter Clothes Not Comfortable Time [hr] !TimeStep
882,1,BUILDING STORY 3 THERMALZONE,Zone Thermal Comfort ASHRAE 55 Simple Model Summer or Winter Clothes Not Comfortable Time [hr] !TimeStep
1128,1,Heating:Electricity [J] !TimeStep
1103,1,Heating:Gas [J] !TimeStep
1060,1,Cooling:Electricity [J] !TimeStep
46,1,InteriorLights:Electricity [J] !TimeStep
983,1,ExteriorLights:Electricity [J] !TimeStep
134,1,InteriorEquipment:Electricity [J] !TimeStep
249,1,InteriorEquipment:Gas [J] !TimeStep
956,1,Fans:Electricity [J] !TimeStep
1153,1,Pumps:Electricity [J] !TimeStep
347,1,WaterSystems:Electricity [J] !TimeStep
497,1,WaterSystems:Gas [J] !TimeStep
398,1,WaterSystems:Water [m3] !TimeStep
10,1,Electricity:Facility [J] !TimeStep
213,1,Gas:Facility [J] !TimeStep
374,1,Water:Facility [m3] !TimeStep
End of Data Dictionary
1,RUN PERIOD 1,  42.93, -78.73,  -5.00, 215.00
2,1, 6, 1, 1, 1, 0.00,15.00,Saturday
866,0.7916891018229019
867,18.211934251811799
868,0.7916891018229019
869,18.211934251811799
870,0.2279561908263717
871,6.0781183152557649
872,0.22550838136627286
873,6.055039383137554
874,0.0
875,0.0
876,0.0
877,0.0
878,0.0
879,0.0
880,0.0
881,0.0
882,0.0
10,82942387.35504085
46,16566633.212829128
134,33054644.012211585
213,37190383.88347761
249,37190383.88347761
347,0.0
374,0.0
398,0.0
497,0.0
956,0.0
983,33321110.13000012
1060,0.0
1103,0.0
1128,0.0
1153,0.0
2,1, 6, 1, 1, 1,15.00,30.00,Saturday
866,0.849875612814301
867,20.241957059882368
868,0.849875612814301
869,20.241957059882368
870,0.23659065414927769
871,6.1615344561319749
872,0.22974826443057315
873,6.095174029030133
874,0.0
875,0.0
876,0.0
877,0.0
878,0.0
879,0.0
880,0.0
881,0.0
882,0.0
10,82942387.35504085
46,16566633.212829128
134,33054644.012211585
213,37190383.88347761
249,37190383.88347761
347,0.0
374,0.0
398,0.0
497,0.0
956,0.0
983,33321110.13000012
1060,0.0
1103,0.0
1128,0.0
1153,0.0
2,1, 6, 1, 1, 1,30.00,45.00,Saturday
866,0.85260612134674
867,20.34070238935226
868,0.85260612134674
869,20.34070238935226
870,0.21440565671171075
871,5.95351145501283
872,0.20705208463593045
873,5.88910970062642
874,0.0
875,0.0
876,0.0
877,0.0
878,0.0
879,0.0
880,0.0
881,0.0
882,0.0
10,83127917.75390914
46,16566633.212829128
134,33054644.012211585
213,37190383.88347761
249,37190383.88347761
347,185530.39886828824
374,0.0
398,0.0
497,0.0
956,0.0
983,33321110.13000012
1060,0.0
1103,0.0
1128,0.0
1153,0.0
2,1, 6, 1, 1, 1,45.00,60.00,Saturday
866,0.8475573132246348
867,20.15836213286113
868,0.8475573132246348
869,20.15836213286113
870,0.1968464325951264
871,5.803479269189211
872,0.19159294982448966
873,5.7610980043064619
874,0.0
875,0.0
876,0.0
877,0.0
878,0.0
879,0.0
880,0.0
881,0.0
882,0.0
10,82942387.35504085
46,16566633.212829128
134,33054644.012211585
213,37190383.88347761
249,37190383.88347761
347,0.0
374,0.0
398,0.0
497,0.0
956,0.0
983,33321110.13000012
1060,0.0
1103,0.0
1128,0.0
1153,0.0
2,1, 6, 1, 1, 2, 0.00,15.00,Saturday
866,0.8567684468587214
867,20.491823401827916
868,0.8567684468587214
869,20.491823401827916
870,0.19089681260646619
871,5.755568629806831
872,0.18811430510634223
873,5.733669567211123
874,0.0
875,0.0
876,0.0
877,0.0
878,0.0
879,0.0
880,0.0
881,0.0
882,0.0
10,99655223.83329252
46,16566633.212829128
134,49581966.01831737
213,55785575.82521642
249,55785575.82521642
347,185514.47214587948
374,0.0
398,0.0
497,0.0
956,0.0
983,33321110.13000012
1060,0.0
1103,0.0
1128,0.0
1153,0.0
2,1, 6, 1, 1, 2,15.00,30.00,Saturday
866,0.8857068358480981
867,21.562277956754458
868,0.8857068358480981
869,21.562277956754458
870,0.19557409789016656
871,5.793109132588754
872,0.19460566387925164
873,5.785261291281984
874,0.0
875,0.0
876,0.0
877,0.0
878,0.0
879,0.0
880,0.0
881,0.0
882,0.0
10,99469709.36114663
46,16566633.212829128
134,49581966.01831737
213,55785575.82521642
249,55785575.82521642
347,0.0
374,0.0
398,0.0
497,0.0
956,0.0
983,33321110.13000012
1060,0.0
1103,0.0
1128,0.0
1153,0.0
2,1, 6, 1, 1, 2,30.00,45.00,Saturday
866,0.9175582658103572
867,22.7800880040691
868,0.9175582658103572
869,22.7800880040691
870,0.2034289193150041
871,5.858210732804011
872,0.20242952458082204
873,5.849784368688745
874,0.0
875,0.0
876,0.0
877,0.0
878,0.0
879,0.0
880,0.0
881,0.0
882,0.0
10,99655207.87529007
46,16566633.212829128
134,49581966.01831737
213,55785575.82521642
249,55785575.82521642
347,185498.51414344277
374,0.0
398,0.0
497,0.0
956,0.0
983,33321110.13000012
1060,0.0
1103,0.0
1128,0.0
1153,0.0
2,1, 6, 1, 1, 2,45.00,60.00,Saturday
866,0.9441973851422797
867,23.82998269156046
868,0.9441973851422797
869,23.82998269156046
870,0.20906992458935123
871,5.906556352814647
872,0.20694015345220446
873,5.888146909587917
874,0.0
875,0.0
876,0.0
877,0.0
878,0.0
879,0.0
880,0.0
881,0.0
882,0.0
10,99469709.36114663
46,16566633.212829128
134,49581966.01831737
213,55785575.82521642
249,55785575.82521642
347,0.0
374,0.0
398,0.0
497,0.0
956,0.0
983,33321110.13000012
1060,0.0
1103,0.0
1128,0.0
1153,0.0
2,1, 6, 1, 1, 3, 0.00,15.00,Saturday
866,0.9572951384044419
867,24.356516089113286
868,0.9572951384044419
869,24.356516089113286
870,0.21156122419785956
871,5.9283317477073329
872,0.20852506717126033
873,5.901828609731126
874,0.0
875,0.0
876,0.0
877,0.0
878,0.0
879,0.0
880,0.0
881,0.0
882,0.0
10,83127869.87992807
46,16566633.212829128
134,33054644.012211585
213,37190383.88347761
249,37190383.88347761
347,185482.52488721707
374,0.0
398,0.0
497,0.0
956,0.0
983,33321110.13000012
1060,0.0
1103,0.0
1128,0.0
1153,0.0
2,1, 6, 1, 1, 3,15.00,30.00,Saturday
866,0.954403738791458
867,24.239700167282096
868,0.954403738791458
869,24.239700167282096
870,0.20881983373282854
871,5.904384764614022
872,0.20546076018787919
873,5.875470969814316
874,0.0
875,0.0
876,0.0
877,0.0
878,0.0
879,0.0
880,0.0
881,0.0
882,0.0
10,82942387.35504085
46,16566633.212829128
134,33054644.012211585
213,37190383.88347761
249,37190383.88347761
347,0.0
374,0.0
398,0.0
497,0.0
956,0.0
983,33321110.13000012
1060,0.0
1103,0.0
1128,0.0
1153,0.0
2,1, 6, 1, 1, 3,30.00,45.00,Saturday
866,0.9469051899966046
867,23.93828252291088
868,0.9469051899966046
869,23.93828252291088
870,0.20516331251119003
871,5.872933395948905
872,0.2021905909414013
873,5.8477759961896969
874,0.0
875,0.0
876,0.0
877,0.0
878,0.0
879,0.0
880,0.0
881,0.0
882,0.0
10,83127853.85944489
46,16566633.212829128
134,33054644.012211585
213,37190383.88347761
249,37190383.88347761
347,185466.50440404018
374,0.0
398,0.0
497,0.0
956,0.0
983,33321110.13000012
1060,0.0
1103,0.0
1128,0.0
1153,0.0
2,1, 6, 1, 1, 3,45.00,60.00,Saturday
866,0.9462097002547701
867,23.91043844561328
868,0.9462097002547701
869,23.91043844561328
870,0.20309648972925696
871,5.855403225908248
872,0.2008596336518895
873,5.836632246959198
874,0.0
875,0.0
876,0.0
877,0.0
878,0.0
879,0.0
880,0.0
881,0.0
882,0.0
10,82942387.35504085
46,16566633.212829128
134,33054644.012211585
213,37190383.88347761
249,37190383.88347761
347,0.0
374,0.0
398,0.0
497,0.0
956,0.0
983,33321110.13000012
1060,0.0
1103,0.0
1128,0.0
1153,0.0
2,1, 6, 1, 1, 4, 0.00,15.00,Saturday
866,0.9732247848771124
867,25.00595308450805
868,0.9732247848771124
869,25.00595308450805
870,0.20458800369688169
871,5.868035848720041
872,0.20216768666226357
873,5.8475835981921169
874,0.0
875,0.0
876,0.0
877,0.0
878,0.0
879,0.0
880,0.0
881,0.0
882,0.0
10,132524353.37335819
46,16566633.212829128
134,82636610.03052897
213,92975959.70869403
249,92975959.70869403
347,0.0
374,0.0
398,0.0
497,0.0
956,0.0
983,33321110.13000012
1060,0.0
1103,0.0
1128,0.0
1153,0.0
2,1, 6, 1, 1, 4,15.00,30.00,Saturday
866,1.0316262782537429
867,27.47009249702387
868,1.0316262782537429
869,27.47009249702387
870,0.22111476164652753
871,6.014244669456033
872,0.21664432607086815
873,5.973567060883411
874,0.0
875,0.0
876,0.0
877,0.0
878,0.0
879,0.0
880,0.0
881,0.0
882,0.0
10,226626339.28900723
46,16566633.212829128
134,82636610.03052897
213,92980542.507702
249,92975959.70869403
347,185537.53066044476
374,0.0
398,0.0
497,0.0
956,13417826.866764795
983,33321110.13000012
1060,80498616.21136658
1103,4582.799007966015
1128,0.0
1153,5.30685719744916
2,1, 6, 1, 1, 4,30.00,45.00,Saturday
866,0.6738050861591761
867,14.541069066819106
868,0.6738050861591761
869,14.541069066819106
870,0.24084968191090978
871,6.2038325812109609
872,0.23258259950430894
873,6.122424288465808
874,0.0
875,0.0
876,0.0
877,0.0
878,0.0
879,0.0
880,0.0
881,0.0
882,0.0
10,266592598.97892053
46,16566633.212829128
134,82636610.03052897
213,92982606.13129719
249,92975959.70869403
347,0.0
374,0.0
398,0.0
497,0.0
956,26835653.733529595
983,33321110.13000012
1060,107232584.17555438
1103,6646.42260316531
1128,0.0
1153,7.696478367704153
2,1, 6, 1, 1, 4,45.00,60.00,Saturday
866,0.08501991074502127
867,5.1496795817514429
868,0.08501991074502127
869,5.1496795817514429
870,0.24449111337062205
871,6.240601171789066
872,0.23475000284252263
873,6.1434898649442719
874,0.0
875,0.0
876,0.0
877,0.0
878,0.0
879,0.0
880,0.0
881,0.0
882,0.0
10,132709889.4246122
46,16566633.212829128
134,82636610.03052897
213,92975959.70869403
249,92975959.70869403
347,185536.05125400052
374,0.0
398,0.0
497,0.0
956,0.0
983,33321110.13000012
1060,0.0
1103,0.0
1128,0.0
1153,0.0
2,1, 6, 1, 1, 5, 0.00,15.00,Saturday
866,0.6204503768982299
867,13.076755674179708
868,0.6204503768982299
869,13.076755674179708
870,0.25269396483810349
871,6.325468932047613
872,0.2398938635608124
873,6.194273680608234
874,0.0
875,0.0
876,0.0
877,0.0
878,0.0
879,0.0
880,0.0
881,0.0
882,0.0
10,256788996.12229569
46,16566633.212829128
134,206901252.77946643
213,223142303.30086569
249,223142303.30086569
347,0.0
374,0.0
398,0.0
497,0.0
956,0.0
983,33321110.13000012
1060,0.0
1103,0.0
1128,0.0
1153,0.0
2,1, 6, 1, 1, 5,15.00,30.00,Saturday
866,0.8989295184972784
867,22.06283296147778
868,0.8989295184972784
869,22.06283296147778
870,0.29136393892161385
871,6.763705253310704
872,0.2735226651257068
873,6.553684600070554
874,0.0
875,0.0
876,0.0
877,0.0
878,0.0
879,0.0
880,0.0
881,0.0
882,0.0
10,256974536.47644723
46,16566633.212829128
134,206901252.77946643
213,223142303.30086569
249,223142303.30086569
347,185540.35415154807
374,0.0
398,0.0
497,0.0
956,0.0
983,33321110.13000012
1060,0.0
1103,0.0
1128,0.0
1153,0.0
2,1, 6, 1, 1, 5,30.00,45.00,Saturday
866,1.0933828219812798
867,30.212154528114796
868,1.0933828219812798
869,30.212154528114796
870,0.30919677406987869
871,6.987060718379709
872,0.2867236274889884
873,6.70778884447131
874,0.0
875,0.0
876,0.0
877,0.0
878,0.0
879,0.0
880,0.0
881,0.0
882,0.0
10,223467885.99229554
46,16566633.212829128
134,206901252.77946643
213,223142303.30086569
249,223142303.30086569
347,0.0
374,0.0
398,0.0
497,0.0
956,0.0
983,0.0
1060,0.0
1103,0.0
1128,0.0
1153,0.0
2,1, 6, 1, 1, 5,45.00,60.00,Saturday
866,1.235781255299244
867,37.01409499829808
868,1.235781255299244
869,37.01409499829808
870,0.32416861457896986
871,7.184974656912573
872,0.29823897509658656
873,6.848222368280602
874,0.0
875,0.0
876,0.0
877,0.0
878,0.0
879,0.0
880,0.0
881,0.0
882,0.0
10,223653404.70496864
46,16566633.212829128
134,206901252.77946643
213,223142303.30086569
249,223142303.30086569
347,185518.71267308983
374,0.0
398,0.0
497,0.0
956,0.0
983,0.0
1060,0.0
1103,0.0
1128,0.0
1153,0.0
2,1, 6, 1, 1, 6, 0.00,15.00,Saturday
866,1.3435408651167556
867,42.52838224251509
868,1.3435408651167556
869,42.52838224251509
870,0.3414465706573117
871,7.425187022593434
872,0.31035245669941438
873,7.00199967161943
874,0.25
875,0.0
876,0.0
877,0.0
878,0.0
879,0.0
880,0.25
881,0.25
882,0.25
10,473287021.1887521
46,29798836.46737995
134,287915546.3017271
213,706907593.3135089
249,241737495.2426045
347,0.0
374,0.4310786646671958
398,0.4310786646671958
497,465163347.7525344
956,30043937.838193135
983,0.0
1060,125528692.76120167
1103,6750.318369976893
1128,0.0
1153,7.820250190011044
2,1, 6, 1, 1, 6,15.00,30.00,Saturday
866,0.2571268097641411
867,6.372509181974095
868,0.2571268097641411
869,6.372509181974095
870,0.3947044846418912
871,8.245540773581269
872,0.3547267245748557
873,7.6184382736503128
874,0.0
875,0.0
876,0.0
877,0.0
878,0.0
879,0.0
880,0.25
881,0.0
882,0.0
10,449048460.999558
46,29798836.46737995
134,287915546.3017271
213,662650660.9961916
249,241737495.2426045
347,185543.20290766919
374,0.4310786646671958
398,0.4310786646671958
497,420902712.12466409
956,26835653.733529595
983,0.0
1060,104312869.18549145
1103,10453.628923038039
1128,0.0
1153,12.108522139133554
2,1, 6, 1, 1, 6,30.00,45.00,Saturday
866,0.19112289345496259
867,5.7573621554745249
868,0.19112289345496259
869,5.7573621554745249
870,0.42392333062502127
871,8.747081035437063
872,0.37354542762421019
873,7.905141564185271
874,0.0
875,0.0
876,0.0
877,0.0
878,0.0
879,0.0
880,0.25
881,0.0
882,0.0
10,328413950.9220769
46,28408224.09890222
134,287915546.3017271
213,662646731.6345787
249,241737495.2426045
347,0.0
374,0.43107866466719588
398,0.43107866466719588
497,420908672.3369354
956,2218543.3664064269
983,0.0
1060,9871636.498406809
1103,564.0550387867768
1128,0.0
1153,0.6566342700336787
2,1, 6, 1, 1, 6,45.00,60.00,Saturday
866,0.8140964597963897
867,18.97682441608829
868,0.8140964597963897
869,18.97682441608829
870,0.4236726864972325
871,8.74262317513066
872,0.3940419926277609
873,8.234592796231596
874,0.0
875,0.0
876,0.0
877,0.0
878,0.0
879,0.0
880,0.0
881,0.25
882,0.0
10,505298388.27190437
46,25787133.932885585
134,287915546.3017271
213,975192810.1053326
249,241737495.2426045
347,0.0
374,0.4310786646671958
398,0.4310786646671958
497,514040675.0346854
956,37821803.8972355
983,0.0
1060,153436489.9536006
1103,219414639.8280428
1128,0.0
1153,337414.1864555012
2,1, 6, 1, 1, 7, 0.00,15.00,Saturday
866,0.6127838921282376
867,12.876495236796089
868,0.6127838921282376
869,12.876495236796089
870,-0.07317261271004042
871,5.110861844546093
872,0.4252126447070985
873,8.770054869274901
874,0.0
875,0.25
876,0.0
877,0.25
878,0.0
879,0.0
880,0.0
881,0.25
882,0.0
10,560663970.0877149
46,22146033.936785148
134,247909830.0915869
213,766584396.3643644
249,278927879.12608209
347,185544.61379563725
374,0.4310786646671958
398,0.4310786646671958
497,431895472.77621248
956,72187911.91499287
983,0.0
1060,218156023.82908289
1103,55761044.46206989
1128,0.0
1153,78625.7014716256
2,1, 6, 1, 1, 7,15.00,30.00,Saturday
866,0.2915080209040776
867,6.765456016013189
868,0.2915080209040776
869,6.765456016013189
870,-0.1236347094282318
871,5.316633755689267
872,-0.008620667014422632
873,5.001538381419465
874,0.25
875,0.0
876,0.0
877,0.25
878,0.0
879,0.0
880,0.0
881,0.0
882,0.0
10,550397759.2159705
46,20915556.139246234
134,247909830.0915869
213,755558576.254518
249,278927879.12608209
347,0.0
374,0.4310786646671958
398,0.4310786646671958
497,420922680.0987217
956,72187911.91499286
983,0.0
1060,209310331.39737613
1103,55708017.029714379
1128,0.0
1153,74129.67276849997
2,1, 6, 1, 1, 7,30.00,45.00,Saturday
866,0.19535400612085464
867,5.791322145391376
868,0.19535400612085464
869,5.791322145391376
870,-0.13612647863941219
871,5.383904899688801
872,-0.07807959958940399
873,5.126233468102171
874,0.25
875,0.0
876,0.0
877,0.25
878,0.0
879,0.0
880,0.25
881,0.0
882,0.0
10,540208644.7947941
46,20087894.60279423
134,247909830.0915869
213,780142157.5172366
249,278927879.12608209
347,185528.76153922527
374,0.4310786646671958
398,0.4310786646671958
497,447938747.1693755
956,72187911.91499287
983,0.0
1060,199769420.99290396
1103,53275531.22177903
1128,0.0
1153,68058.43097705278
2,1, 6, 1, 1, 7,45.00,60.00,Saturday
866,0.17338115138182795
867,5.623104262333172
868,0.17338115138182795
869,5.623104262333172
870,-0.14255961024100329
871,5.421080966240368
872,-0.12425268408411995
873,5.31980914629996
874,0.25
875,0.0
876,0.0
877,0.25
878,0.0
879,0.0
880,0.25
881,0.0
882,0.0
10,540995765.6194068
46,20087894.60279423
134,247909830.0915869
213,848864016.0787896
249,278927879.12608209
347,0.0
374,0.4310786646671958
398,0.4310786646671958
497,497848451.5216228
956,72187911.91499287
983,0.0
1060,200719957.51186938
1103,72087685.4310847
1128,0.0
1153,90171.49816347643
2,1, 6, 1, 1, 8, 0.00,15.00,Saturday
866,0.16988397107741388
867,5.598190011809578
868,0.16988397107741388
869,5.598190011809578
870,-0.14007143541713336
871,5.406497962626716
872,-0.1326761062540686
873,5.364675141005563
874,0.25
875,0.0
876,0.0
877,0.25
878,0.0
879,0.0
880,0.25
881,0.0
882,0.0
10,619184136.5800102
46,34864948.714001927
134,314126056.2556205
213,814397148.3950949
249,334713454.9512985
347,185512.8315970774
374,0.4310786646671958
398,0.4310786646671958
497,420952844.4140339
956,72187911.91499287
983,0.0
1060,197749313.1904477
1103,58730849.02976246
1128,0.0
1153,70393.67335027686
2,1, 6, 1, 1, 8,15.00,30.00,Saturday
866,0.19374537761904557
867,5.778322721658924
868,0.19374537761904557
869,5.778322721658924
870,-0.14168934597383008
871,5.415951114274975
872,-0.1368833283152318
873,5.388189237466875
874,0.25
875,0.0
876,0.0
877,0.25
878,0.0
879,0.0
880,0.25
881,0.0
882,0.0
10,618168419.366844
46,33209919.554995806
134,314126056.2556205
213,817252504.9585011
249,334713454.9512985
347,0.0
374,0.4310786646671958
398,0.4310786646671958
497,420874114.6107695
956,72187911.91499287
983,0.0
1060,198572405.36421404
1103,61664935.396433118
1128,0.0
1153,72126.27702113529
2,1, 6, 1, 1, 8,30.00,45.00,Saturday
866,0.21104462300372868
867,5.923795001736664
868,0.21104462300372868
869,5.923795001736664
870,-0.14165800249188049
871,5.415766945340067
872,-0.13758700316032733
873,5.392193944931222
874,0.25
875,0.0
876,0.0
877,0.25
878,0.0
879,0.0
880,0.25
881,0.0
882,0.0
10,619447007.3096148
46,33209919.554995806
134,314126056.2556205
213,879062762.2928368
249,334713454.9512985
347,185496.87037757386
374,0.4310786646671958
398,0.4310786646671958
497,481318363.2728677
956,72187911.91499287
983,0.0
1060,199665515.34965009
1103,63030944.06867058
1128,0.0
1153,72107.36397812664
2,1, 6, 1, 1, 8,45.00,60.00,Saturday
866,0.21429507686037359
867,5.952526241621911
868,0.21429507686037359
869,5.952526241621911
870,-0.14223067773068943
871,5.419138338140158
872,-0.13831756394835532
873,5.396373461505874
874,0.25
875,0.0
876,0.0
877,0.25
878,0.0
879,0.0
880,0.25
881,0.0
882,0.0
10,619532437.7043429
46,33209919.554995806
134,314126056.2556205
213,863925797.2824828
249,334713454.9512985
347,0.0
374,0.4310786646671958
398,0.4310786646671958
497,464501295.92937919
956,72187911.91499287
983,0.0
1060,199935897.21147833
1103,64711046.401805009
1128,0.0
1153,72652.76725541687
2,1, 6, 1, 1, 9, 0.00,15.00,Saturday
866,0.22838520080726153
867,6.082189071773996
868,0.22838520080726153
869,6.082189071773996
870,-0.14596625877946929
871,5.4414649943505399
872,-0.14065822502747075
873,5.409913875701534
874,0.25
875,0.0
876,0.0
877,0.25
878,0.0
879,0.0
880,0.25
881,0.0
882,0.0
10,763256307.4602283
46,30364346.724489649
134,379829765.1529766
213,1038269365.5421764
249,390499030.77651497
347,80962385.31525539
374,1.4369288822239859
398,1.4369288822239859
497,543191093.8393184
956,72187911.91499287
983,0.0
1060,199792841.90437133
1103,104579240.92634304
1128,0.0
1153,119056.4481426621
2,1, 6, 1, 1, 9,15.00,30.00,Saturday
866,0.25511542694660169
867,6.351062461554932
868,0.25511542694660169
869,6.351062461554932
870,-0.14752098473797835
871,5.450928412236365
872,-0.144209685991074
873,5.430894035853186
874,0.25
875,0.0
876,0.0
877,0.25
878,0.0
879,0.0
880,0.25
881,0.0
882,0.0
10,763807240.0470526
46,30364346.724489649
134,379829765.1529766
213,1040186325.4993752
249,390499030.77651497
347,80639565.21643548
374,1.4369288822239859
398,1.4369288822239859
497,543189521.0577827
956,72187911.91499287
983,0.0
1060,200665461.69615216
1103,106497773.6650776
1128,0.0
1153,120189.34200591715
2,1, 6, 1, 1, 9,30.00,45.00,Saturday
866,0.2753026029525933
867,6.574034438048969
868,0.2753026029525933
869,6.574034438048969
870,-0.15035563105806033
871,5.468441576128541
872,-0.14692569643691456
873,5.44729307904791
874,0.25
875,0.0
876,0.0
877,0.25
878,0.0
879,0.0
880,0.0
881,0.0
882,0.0
10,764811919.8055441
46,30364346.724489649
134,379829765.1529766
213,1040964392.5513487
249,390499030.77651497
347,80819450.72441566
374,1.4369288822239859
398,1.4369288822239859
497,543187939.8819076
956,72187911.91499287
983,0.0
1060,201490274.15299074
1103,107277421.89292622
1128,0.0
1153,120171.1356788438
2,1, 6, 1, 1, 9,45.00,60.00,Saturday
866,0.2844461300611401
867,6.680677235626035
868,0.2844461300611401
869,6.680677235626035
870,-0.1524208225729293
871,5.481411554996214
872,-0.14889856147631876
873,5.45939763957
874,0.25
875,0.0
876,0.0
877,0.25
878,0.0
879,0.0
880,0.0
881,0.0
882,0.0
10,764985661.1210748
46,30364346.724489649
134,379829765.1529766
213,1043214453.9083064
249,390499030.77651497
347,80606261.29475437
374,1.4369288822239859
398,1.4369288822239859
497,543186350.271406
956,72187911.91499287
983,0.0
1060,201875237.23514319
1103,109529072.86038542
1128,0.0
1153,122138.79871811284
2,1, 6, 1, 1,10, 0.00,15.00,Saturday
866,0.31987135569358257
867,7.127197148074785
868,0.31987135569358257
869,7.127197148074785
870,-0.15765398646656327
871,5.515072760812117
872,-0.15325056645691149
873,5.486672601345276
874,0.25
875,0.0
876,0.0
877,0.25
878,0.0
879,0.0
880,0.0
881,0.0
882,0.0
10,865443594.9431579
46,44283831.540263827
134,470527246.62302497
213,1221453836.1188884
249,483474990.485209
347,72543106.8898528
374,1.2932359940015875
398,1.2932359940015875
497,540987562.9785141
956,72187911.91499287
983,0.0
1060,205664707.10105134
1103,196991282.6551654
1128,0.0
1153,236790.87397206148
2,1, 6, 1, 1,10,15.00,30.00,Saturday
866,0.36549114816055686
867,7.780587533532753
868,0.36549114816055686
869,7.780587533532753
870,-0.16450652547809106
871,5.560875774358863
872,-0.15885775218037263
873,5.522977144651563
874,0.25
875,0.0
876,0.0
877,0.25
878,0.0
879,0.0
880,0.0
881,0.25
882,0.0
10,870301681.9780007
46,44283831.540263827
134,470527246.62302497
213,1219770418.7756663
249,483474990.485209
347,72274989.63153339
374,1.2932359940015875
398,1.2932359940015875
497,540998863.9800742
956,72187911.91499287
983,0.0
1060,210785427.4927044
1103,195296564.3103832
1128,0.0
1153,242274.77548108469
2,1, 6, 1, 1,10,30.00,45.00,Saturday
866,0.3983606623356252
867,8.306298347646802
868,0.3983606623356252
869,8.306298347646802
870,-0.1686903938678971
871,5.58980362211517
872,-0.16415544591356838
873,5.558481553908052
874,0.25
875,0.0
876,0.0
877,0.25
878,0.0
879,0.0
880,0.0
881,0.25
882,0.0
10,874895143.3478402
46,44283831.540263827
134,470527246.62302497
213,1168364989.9083622
249,483474990.485209
347,72403513.16453764
374,1.2932359940015875
398,1.2932359940015875
497,492559567.3049007
956,72187911.91499287
983,0.0
1060,215248881.05112619
1103,192330432.11825259
1128,0.0
1153,243759.05389460669
2,1, 6, 1, 1,10,45.00,60.00,Saturday
866,0.40924503530809105
867,8.490558319298657
868,0.40924503530809105
869,8.490558319298657
870,-0.1697216451870938
871,5.597045976139654
872,-0.16704194228287276
873,5.578318857865341
874,0.25
875,0.0
876,0.0
877,0.25
878,0.0
879,0.0
880,0.0
881,0.25
882,0.0
10,875026461.2306475
46,40489655.081087049
134,470527246.62302497
213,1175250542.7078469
249,483474990.485209
347,72743224.74872582
374,1.2932359940015875
398,1.2932359940015875
497,501277870.8791604
956,72187911.91499287
983,0.0
1060,218833424.9999329
1103,190497681.34347759
1128,0.0
1153,244997.8628837136
2,1, 6, 1, 1,11, 0.00,15.00,Saturday
866,0.4350833080935994
867,8.948300542600265
868,0.4350833080935994
869,8.948300542600265
870,-0.1556351515370851
871,5.501951865162667
872,-0.15815527837317948
873,5.518357097260761
874,0.25
875,0.0
876,0.0
877,0.25
878,0.0
879,0.0
880,0.0
881,0.25
882,0.0
10,905176475.5137316
46,40489655.081087049
134,487865726.88326486
213,1134927565.766048
249,539260566.3104253
347,80614966.11299265
374,1.4369288822239859
398,1.4369288822239859
497,543126702.6335253
956,72187911.91499287
983,0.0
1060,223957136.7785209
1103,52540296.82209718
1128,0.0
1153,61078.74287333272
2,1, 6, 1, 1,11,15.00,30.00,Saturday
866,0.4963550674048499
867,10.148523608055243
868,0.4963550674048499
869,10.148523608055243
870,-0.14759496964929973
871,5.451381257419683
872,-0.14857304530094818
873,5.4573892632901679
874,0.25
875,0.0
876,0.0
877,0.25
878,0.0
879,0.0
880,0.0
881,0.25
882,0.0
10,915338512.856337
46,40489655.081087049
134,487865726.88326486
213,1131633975.2035619
249,539260566.3104253
347,80784219.58058813
374,1.4369288822239859
398,1.4369288822239859
497,543124789.8362305
956,72187911.91499287
983,0.0
1060,233955111.09631575
1103,49248619.05690606
1128,0.0
1153,55888.30008837506
2,1, 6, 1, 1,11,30.00,45.00,Saturday
866,0.5404222463219395
867,11.111938506757824
868,0.5404222463219395
869,11.111938506757824
870,-0.13816394705786448
871,5.395492780020305
872,-0.1397948439139768
873,5.404892792956161
874,0.25
875,0.0
876,0.0
877,0.25
878,0.0
879,0.0
880,0.0
881,0.25
882,0.0
10,924686517.7598566
46,40489655.081087049
134,487865726.88326486
213,1135390184.3404759
249,539260566.3104253
347,80606698.52981071
374,1.4369288822239859
398,1.4369288822239859
497,547206266.1819079
956,72187911.91499287
983,0.0
1060,243482045.68010668
1103,48923351.84814266
1128,0.0
1153,54479.670594388226
2,1, 6, 1, 1,11,45.00,60.00,Saturday
866,0.5631606765205947
867,11.64194787838774
868,0.5631606765205947
869,11.64194787838774
870,-0.13420700817013427
871,5.373146109977739
872,-0.13466847397603785
873,5.375718669394459
874,0.25
875,0.0
876,0.0
877,0.25
878,0.0
879,0.0
880,0.0
881,0.25
882,0.0
10,932201064.0237124
46,40489655.081087049
134,487865726.88326486
213,1142244148.8018239
249,539260566.3104253
347,80588437.22111397
374,1.4369288822239859
398,1.4369288822239859
497,553801930.6586294
956,72187911.91499287
983,0.0
1060,251015452.30235739
1103,49181651.83276927
1128,0.0
1153,53880.62089623455
2,1, 6, 1, 1,12, 0.00,15.00,Saturday
866,0.5734336081315785
867,11.88875193114444
868,0.5734336081315785
869,11.88875193114444
870,-0.13159502870842752
871,5.358751917962664
872,-0.13279603485326353
873,5.365335225033434
874,0.25
875,0.0
876,0.0
877,0.25
878,0.0
879,0.0
880,0.0
881,0.25
882,0.0
10,895071902.698647
46,44283831.540263827
134,446237694.1648564
213,1090467196.341331
249,502070182.42694786
347,80607473.91656749
374,1.4369288822239859
398,1.4369288822239859
497,553829898.4833107
956,72187911.91499287
983,0.0
1060,251718014.92876295
1103,34567115.431072589
1128,0.0
1153,36976.23320344793
2,1, 6, 1, 1,12,15.00,30.00,Saturday
866,0.5786883453210878
867,12.016765228716736
868,0.5786883453210878
869,12.016765228716736
870,-0.1297625219037994
871,5.348822639293161
872,-0.1317094228139568
873,5.359376383573931
874,0.25
875,0.0
876,0.0
877,0.25
878,0.0
879,0.0
880,0.0
881,0.25
882,0.0
10,900376294.5151636
46,50285007.458680007
134,446237694.1648564
213,1090192779.8409115
249,502070182.42694786
347,80780277.25579071
374,1.4369288822239859
398,1.4369288822239859
497,553858075.1272069
956,72187911.91499287
983,0.0
1060,250849124.67675717
1103,34264522.28675657
1128,0.0
1153,36279.04408641343
2,1, 6, 1, 1,12,30.00,45.00,Saturday
866,0.5887847255059221
867,12.266090814563143
868,0.5887847255059221
869,12.266090814563143
870,-0.12938732185747799
871,5.34680687389077
872,-0.13186302492570849
873,5.360215737661804
874,0.25
875,0.0
876,0.0
877,0.25
878,0.0
879,0.0
880,0.0
881,0.25
882,0.0
10,899189048.9433276
46,50285007.458680007
134,446237694.1648564
213,1089880764.5790268
249,502070182.42694786
347,80597701.70141998
374,1.4369288822239859
398,1.4369288822239859
497,553886462.7647299
956,72187911.91499287
983,0.0
1060,249845157.23190097
1103,33924119.38734894
1128,0.0
1153,35576.47147735357