Program Version,EnergyPlus, Version 9.1.0-08d2e308bb, YMD=2020.01.03 10:58
1,5,Environment Title[],Latitude[deg],Longitude[deg],Time Zone[],Elevation[m]
2,8,Day of Simulation[],Month[],Day of Month[],DST Indicator[1=yes 0=no],Hour[],StartMinute[],EndMinute[],DayType
3,5,Cumulative Day of Simulation[],Month[],Day of Month[],DST Indicator[1=yes 0=no],DayType  ! When Daily Report Variables Requested
4,2,Cumulative Days of Simulation[],Month[]  ! When Monthly Report Variables Requested
5,1,Cumulative Days of Simulation[] ! When Run Period Report Variables Requested
6,1,Calendar Year of Simulation[] ! When Annual Report Variables Requested
7,9,Environment,Site Outdoor Air Drybulb Temperature [C] !Monthly [Value,Min,Day,Hour,Minute,Max,Day,Hour,Minute]
8,1,Environment,Site Outdoor Air Wetbulb Temperature [C] !TimeStep
488,7,BUILDING STORY 1 THERMALZONE,Zone Air Relative Humidity [%] !Daily [Value,Min,Hour,Minute,Max,Hour,Minute]
527,7,BUILDING STORY 2 THERMALZONE,Zone Air Relative Humidity [%] !Daily [Value,Min,Hour,Minute,Max,Hour,Minute]
566,7,BUILDING STORY 3 THERMALZONE,Zone Air Relative Humidity [%] !Daily [Value,Min,Hour,Minute,Max,Hour,Minute]
972,1,Heating:Electricity [J] !Hourly
947,1,Heating:Gas [J] !Hourly
826,1,Cooling:Electricity [J] !Hourly
47,1,InteriorLights:Electricity [J] !Hourly
843,1,ExteriorLights:Electricity [J] !Hourly
139,1,InteriorEquipment:Electricity [J] !Hourly
732,1,Fans:Electricity [J] !Hourly
997,1,Pumps:Electricity [J] !Hourly
279,1,WaterSystems:Electricity [J] !Hourly
330,1,WaterSystems:Water [m3] !Hourly
11,1,Electricity:Facility [J] !Hourly
923,1,Gas:Facility [J] !Hourly
306,1,Water:Facility [m3] !Hourly
10,1,Electricity:Facility [J] !TimeStep
922,1,Gas:Facility [J] !TimeStep
End of Data Dictionary
1,RUN PERIOD 1,  42.93, -78.73,  -5.00, 215.00
2,1, 1, 1, 0, 1, 0.00,60.00,Monday
8,-1.1802458087361237
10,375882990.43926176
922,610677988.2376005
2,1, 1, 1, 0, 1, 0.00,60.00,Monday
11,375882990.43926176
47,30904514.992873029
139,112611143.0653622
279,0.0
306,0.1211937436755789
330,0.1211937436755789
732,170695305.72999693
826,0.0
843,61075504.06359731
923,610677988.2376005
947,610677988.2376005
972,0.0
997,596522.5874322258
2,1, 1, 1, 0, 2, 0.00,60.00,Monday
8,-1.1802458087361237
10,366228791.0719837
922,718537219.3496853
2,1, 1, 1, 0, 2, 0.00,60.00,Monday
11,366228791.0719837
47,30904514.992873029
139,102832972.81523679
279,0.0
306,0.06059687183778945
330,0.06059687183778945
732,170695305.72999693
826,0.0
843,61075504.06359731
923,718537219.3496853
947,718537219.3496853
972,0.0
997,720493.470279577
2,1, 1, 1, 0, 3, 0.00,60.00,Monday
8,-1.87387394903547
10,361220201.6036222
922,617925072.1994075
2,1, 1, 1, 0, 3, 0.00,60.00,Monday
11,361220201.6036222
47,30904514.992873029
139,97943887.69017409
279,0.0
306,0.015149217959447363
330,0.015149217959447363
732,170695305.72999693
826,0.0
843,61075504.06359731
923,617925072.1994075
947,617925072.1994075
972,0.0
997,600989.1269808108
2,1, 1, 1, 0, 4, 0.00,60.00,Monday
8,-1.5103272887722317
10,358541081.3473329
922,408723191.913166
2,1, 1, 1, 0, 4, 0.00,60.00,Monday
11,358541081.3473329
47,30904514.992873029
139,95499345.12764275
279,0.0
306,0.015149217959447363
330,0.015149217959447363
732,170695305.72999693
826,0.0
843,61075504.06359731
923,408723191.913166
947,408723191.913166
972,0.0
997,366411.433222854
2,1, 1, 1, 0, 5, 0.00,60.00,Monday
8,-1.665952381653312
10,370698014.63652458
922,598838334.5284649
2,1, 1, 1, 0, 5, 0.00,60.00,Monday
11,370698014.63652458
47,42868359.154904518
139,95499345.12764275
279,0.0
306,0.06059687183778945
330,0.06059687183778945
732,170695305.72999693
826,0.0
843,61075504.06359731
923,598838334.5284649
947,598838334.5284649
972,0.0
997,559500.560383093
2,1, 1, 1, 0, 6, 0.00,60.00,Monday
8,-1.3944780310032846
10,403628396.1763888
922,376888695.20796886
2,1, 1, 1, 0, 6, 0.00,60.00,Monday
11,403628396.1763888
47,63805087.099239248
139,107722057.9402995
279,0.0
306,0.4090288849050788
330,0.4090288849050788
732,170695305.72999693
826,0.0
843,61075504.06359731
923,376888695.20796886
947,376888695.20796886
972,0.0
997,330441.34325580866
2,1, 1, 1, 0, 7, 0.00,60.00,Monday
8,-1.1805889590406258
10,855374700.0922928
922,477903546.25833329
2,1, 1, 1, 0, 7, 0.00,60.00,Monday
11,855374700.0922928
47,66796048.00759117
139,140037589.513127
279,409682099.07417967
306,1.4240264881880523
330,1.4240264881880523
732,170695305.72999693
826,0.0
843,67739200.33518712
923,477903546.25833329
947,477903546.25833329
972,0.0
997,424457.43221081807
2,1, 1, 1, 0, 8, 0.00,60.00,Monday
8,-1.3944780310032846
10,685107268.6109132
922,508767295.0926713
2,1, 1, 1, 0, 8, 0.00,60.00,Monday
11,685107268.6109132
47,63805087.099239248
139,176314760.12586237
279,206095635.04834465
306,1.5149217959447364
330,1.5149217959447364
732,170695305.72999693
826,0.0
843,67739200.33518712
923,508767295.0926713
947,508767295.0926713
972,0.0
997,457280.2722828365
2,1, 1, 1, 0, 9, 0.00,60.00,Monday
8,-1.665952381653312
10,809478091.0429149
922,545974337.7647866
2,1, 1, 1, 0, 9, 0.00,60.00,Monday
11,809478091.0429149
47,52964401.3728503
139,174381371.26805554
279,410937950.4514932
306,1.454324924106947
330,1.454324924106947
732,170695305.72999693
826,0.0
843,0.0
923,545974337.7647866
947,545974337.7647866
972,0.0
997,499062.2205186416
2,1, 1, 1, 0,10, 0.00,60.00,Monday
8,-1.1802458087361237
10,591467807.148483
922,464854619.82168057
2,1, 1, 1, 0,10, 0.00,60.00,Monday
11,591467807.148483
47,46982479.02752268
139,171683526.69399876
279,201691306.86117659
306,1.2725343085935786
330,1.2725343085935786
732,170695305.72999693
826,0.0
843,0.0
923,464854619.82168057
947,464854619.82168057
972,0.0
997,415188.83578820558
2,1, 1, 1, 0,11, 0.00,60.00,Monday
8,-0.9849379844004382
10,594086601.092565
922,516814582.3919928
2,1, 1, 1, 0,11, 0.00,60.00,Monday
11,594086601.092565
47,46982479.02752268
139,176572611.81906144
279,199369095.85093249
306,1.1513405649179996
330,1.1513405649179996
732,170695305.72999693
826,0.0
843,0.0
923,516814582.3919928
947,516814582.3919928
972,0.0
997,467108.6650514573
2,1, 1, 1, 0,12, 0.00,60.00,Monday
8,-0.818433687998716
10,593855009.4037702
922,570752087.9715881
2,1, 1, 1, 0,12, 0.00,60.00,Monday
11,593855009.4037702
47,46982479.02752268
139,180562134.55370135
279,195086106.81857304
306,0.9241022955262891
330,0.9241022955262891
732,170695305.72999693
826,0.0
843,0.0
923,570752087.9715881
947,570752087.9715881
972,0.0
997,528983.2739762346
2,1, 1, 1, 0,13, 0.00,60.00,Monday
8,-0.598194072481827
10,587188038.6090428
922,458822799.6201944
2,1, 1, 1, 0,13, 0.00,60.00,Monday
11,587188038.6090428
47,45580250.94169688
139,177643641.4909061
279,192857552.49455867
306,0.8029085518507103
330,0.8029085518507103
732,170695305.72999693
826,0.0
843,0.0
923,458822799.6201944
947,458822799.6201944
972,0.0
997,411287.95188422067
2,1, 1, 1, 0,14, 0.00,60.00,Monday
8,-0.2717280594017997
10,578507103.3204494
922,443379428.295798
2,1, 1, 1, 0,14, 0.00,60.00,Monday
11,578507103.3204494
47,46982479.02752268
139,169238984.1314674
279,191199570.60727058
306,0.7120132440940261
330,0.7120132440940261
732,170695305.72999693
826,0.0
843,0.0
923,443379428.295798
947,443379428.295798
972,0.0
997,390763.8241918482
2,1, 1, 1, 0,15, 0.00,60.00,Monday
8,-0.04571975547003023
10,574381961.5703577
922,409989153.22893127
2,1, 1, 1, 0,15, 0.00,60.00,Monday
11,574381961.5703577
47,46982479.02752268
139,166794441.56893606
279,189554238.57590596
306,0.6211179363373419
330,0.6211179363373419
732,170695305.72999693
826,0.0
843,0.0
923,409989153.22893127
947,409989153.22893127
972,0.0
997,355496.66799598318
2,1, 1, 1, 0,16, 0.00,60.00,Monday
8,-0.04535544602759805
10,594927951.637345
922,493893871.62327387
2,1, 1, 1, 0,16, 0.00,60.00,Monday
11,594927951.637345
47,55955362.80982594
139,176721870.1575675
279,191115981.3829551
306,0.7120132440940261
330,0.7120132440940261
732,170695305.72999693
826,0.0
843,0.0
923,493893871.62327387
947,493893871.62327387
972,0.0
997,439431.55699939539
2,1, 1, 1, 0,17, 0.00,60.00,Monday
8,-0.04535544602759805
10,563596990.1712573
922,469238701.0623091
2,1, 1, 1, 0,17, 0.00,60.00,Monday
11,563596990.1712573
47,76892090.22553696
139,210136256.10456313
279,105456046.58518964
306,0.8332069877696051
330,0.8332069877696051
732,170695305.72999693
826,0.0
843,0.0
923,469238701.0623091
947,469238701.0623091
972,0.0
997,417291.52597073806
2,1, 1, 1, 0,18, 0.00,60.00,Monday
8,-0.4337098548147795
10,871721627.7396282
922,451258093.7214583
2,1, 1, 1, 0,18, 0.00,60.00,Monday
11,871721627.7396282
47,84741814.51495026
139,259492932.1082073
279,288653186.1631667
306,1.1058929110396576
330,1.1058929110396576
732,170695305.72999693
826,0.0
843,67739200.33518712
923,451258093.7214583
947,451258093.7214583
972,0.0
997,399188.88811959189
2,1, 1, 1, 0,19, 0.00,60.00,Monday
8,-1.0213911744465183
10,793995920.4748778
922,582547818.2381284
2,1, 1, 1, 0,19, 0.00,60.00,Monday
11,793995920.4748778
47,105678542.45928499
139,247060984.00458647
279,202276395.13556055
306,1.3028327445124733
330,1.3028327445124733
732,170695305.72999693
826,0.0
843,67739200.33518712
923,582547818.2381284
947,582547818.2381284
972,0.0
997,545492.8102618804
2,1, 1, 1, 0,20, 0.00,60.00,Monday
8,-1.1809288569695527
10,790662011.1873889
922,538948018.4316564
2,1, 1, 1, 0,20, 0.00,60.00,Monday
11,790662011.1873889
47,120633348.05829214
139,229949186.066867
279,201138118.52577899
306,1.2422358726746839
330,1.2422358726746839
732,170695305.72999693
826,0.0
843,67739200.33518712
923,538948018.4316564
947,538948018.4316564
972,0.0
997,506852.4712666816
2,1, 1, 1, 0,21, 0.00,60.00,Monday
8,-1.5108130242800387
10,982768508.3780308
922,477427510.5475714
2,1, 1, 1, 0,21, 0.00,60.00,Monday
11,982768508.3780308
47,120633348.05829214
139,225030226.7049352
279,398233736.3181284
306,1.1361913469585523
330,1.1361913469585523
732,170695305.72999693
826,0.0
843,67739200.33518712
923,477427510.5475714
947,477427510.5475714
972,0.0
997,436691.23149096596
2,1, 1, 1, 0,22, 0.00,60.00,Monday
8,-1.6662902470607773
10,735009490.1499852
922,547121010.9742506
2,1, 1, 1, 0,22, 0.00,60.00,Monday
11,735009490.1499852
47,90723736.86027786
139,210392845.56661619
279,194950068.66682319
306,0.9241022955262891
330,0.9241022955262891
732,170695305.72999693
826,0.0
843,67739200.33518712
923,547121010.9742506
947,547121010.9742506
972,0.0
997,508332.991083844
2,1, 1, 1, 0,23, 0.00,60.00,Monday
8,-1.874803504688023
10,541684383.9677501
922,733235641.694158
2,1, 1, 1, 0,23, 0.00,60.00,Monday
11,541684383.9677501
47,60814125.66226358
139,176169249.69117729
279,65527674.7856448
306,0.8029085518507103
330,0.8029085518507103
732,170695305.72999693
826,0.0
843,67739200.33518712
923,733235641.694158
947,733235641.694158
972,0.0
997,738827.763480354
2,1, 1, 1, 0,24, 0.00,60.00,Monday
8,-1.665952381653312
10,546439479.0981808
922,715612132.2783332
2,1, 1, 1, 0,24, 0.00,60.00,Monday
11,546439479.0981808
47,39877398.24655257
139,144390196.37826974
279,123006928.88687831
306,0.4393273208239735
330,0.4393273208239735
732,170695305.72999693
826,0.0
843,67739200.33518712
923,715612132.2783332
947,715612132.2783332
972,0.0
997,730449.5212962023
3,1, 1, 1, 0,Monday
488,22.48426682270285,21.663960877783283,13,60,22.96155530504789, 7,60
527,22.1069413469252,21.602572386130654,13,60,22.465815161520199, 7,60
566,20.800941198217897,20.459261311401833,12,60,21.409254194372268,19,60
2,2, 1, 2, 0, 1, 0.00,60.00,Tuesday
8,-2.450886200756528
10,375932543.06596937
922,652666880.0114136
2,2, 1, 2, 0, 1, 0.00,60.00,Tuesday
11,375932543.06596937
47,30904514.992873029
139,112611143.0653622
279,0.0
306,0.1211937436755789
330,0.1211937436755789
732,170695305.72999693
826,0.0
843,61075504.06359731
923,652666880.0114136
947,652666880.0114136
972,0.0
997,646075.2141398679
2,2, 1, 2, 0, 2, 0.00,60.00,Tuesday
8,-2.248902511226617
10,366548345.79032596
922,942208236.0303062
2,2, 1, 2, 0, 2, 0.00,60.00,Tuesday
11,366548345.79032596
47,30904514.992873029
139,102832972.81523679
279,0.0
306,0.06059687183778945
330,0.06059687183778945
732,170695305.72999693
826,0.0
843,61075504.06359731
923,942208236.0303062
947,942208236.0303062
972,0.0
997,1040048.1886218175
2,2, 1, 2, 0, 3, 0.00,60.00,Tuesday
8,-2.248902511226617
10,361479912.31354078
922,800891868.5368537
2,2, 1, 2, 0, 3, 0.00,60.00,Tuesday
11,361479912.31354078
47,30904514.992873029
139,97943887.69017409
279,0.0
306,0.015149217959447363
330,0.015149217959447363
732,170695305.72999693
826,0.0
843,61075504.06359731
923,800891868.5368537
947,800891868.5368537
972,0.0
997,860699.8368993362
2,2, 1, 2, 0, 4, 0.00,60.00,Tuesday
8,-1.665952381653312
10,359013502.8920722
922,794085114.360765
2,2, 1, 2, 0, 4, 0.00,60.00,Tuesday
11,359013502.8920722
47,30904514.992873029
139,95499345.12764275
279,0.0
306,0.015149217959447363
330,0.015149217959447363
732,170695305.72999693
826,0.0
843,61075504.06359731
923,794085114.360765
947,794085114.360765
972,0.0
997,838832.9779621607
2,2, 1, 2, 0, 5, 0.00,60.00,Tuesday
8,-2.8216230582487005
10,370946641.48901417
922,772472534.5177236
2,2, 1, 2, 0, 5, 0.00,60.00,Tuesday
11,370946641.48901417
47,42868359.154904518
139,95499345.12764275
279,0.0
306,0.06059687183778945
330,0.06059687183778945
732,170695305.72999693
826,0.0
843,61075504.06359731
923,772472534.5177236
947,772472534.5177236
972,0.0
997,808127.412872685
2,2, 1, 2, 0, 6, 0.00,60.00,Tuesday
8,-1.665952381653312
10,589995252.122109
922,734042948.1868802
2,2, 1, 2, 0, 6, 0.00,60.00,Tuesday
11,589995252.122109
47,63805087.099239248
139,107722057.9402995
279,185943152.8893558
306,0.4090288849050788
330,0.4090288849050788
732,170695305.72999693
826,0.0
843,61075504.06359731
923,734042948.1868802
947,734042948.1868802
972,0.0
997,754144.3996203782
2,2, 1, 2, 0, 7, 0.00,60.00,Tuesday
8,-1.665952381653312
10,650832298.2801517
922,749374878.5560024
2,2, 1, 2, 0, 7, 0.00,60.00,Tuesday
11,650832298.2801517
47,66796048.00759117
139,140037589.513127
279,204792464.19273407
306,1.4240264881880523
330,1.4240264881880523
732,170695305.72999693
826,0.0
843,67739200.33518712
923,749374878.5560024
947,749374878.5560024
972,0.0
997,771690.5015153361
2,2, 1, 2, 0, 8, 0.00,60.00,Tuesday
8,-1.66561355779768
10,891719071.9087738
922,686502051.8142939
2,2, 1, 2, 0, 8, 0.00,60.00,Tuesday
11,891719071.9087738
47,63805087.099239248
139,176314760.12586237
279,412473763.13693508
306,1.5149217959447364
330,1.5149217959447364
732,170695305.72999693
826,0.0
843,67739200.33518712
923,686502051.8142939
947,686502051.8142939
972,0.0
997,690955.4815530718
2,2, 1, 2, 0, 9, 0.00,60.00,Tuesday
8,-1.66561355779768
10,604124203.7617654
922,669494968.8893806
2,2, 1, 2, 0, 9, 0.00,60.00,Tuesday
11,604124203.7617654
47,52964401.3728503
139,174381371.26805554
279,205420762.74081636
306,1.454324924106947
330,1.454324924106947
732,170695305.72999693
826,0.0
843,0.0
923,669494968.8893806
947,669494968.8893806
972,0.0
997,662362.650046186
2,2, 1, 2, 0,10, 0.00,60.00,Tuesday
8,-1.1802458087361237
10,793685456.2188811
922,683898151.8568213
2,2, 1, 2, 0,10, 0.00,60.00,Tuesday
11,793685456.2188811
47,46982479.02752268
139,171683526.69399876
279,403646278.53186568
306,1.2725343085935786
330,1.2725343085935786
732,170695305.72999693
826,0.0
843,0.0
923,683898151.8568213
947,683898151.8568213
972,0.0
997,677866.2354971699
2,2, 1, 2, 0,11, 0.00,60.00,Tuesday
8,-1.1799047350000767
10,594204144.0333935
922,650193606.1013686
2,2, 1, 2, 0,11, 0.00,60.00,Tuesday
11,594204144.0333935
47,46982479.02752268
139,176572611.81906144
279,199315808.1060966
306,1.1513405649179996
330,1.1513405649179996
732,170695305.72999693
826,0.0
843,0.0
923,650193606.1013686
947,650193606.1013686
972,0.0
997,637939.3507159498
2,2, 1, 2, 0,12, 0.00,60.00,Tuesday
8,-0.817959937909318
10,593790132.7031819
922,552910626.4465025
2,2, 1, 2, 0,12, 0.00,60.00,Tuesday
11,593790132.7031819
47,46982479.02752268
139,180562134.55370135
279,195028357.2639613
306,0.9241022955262891
330,0.9241022955262891
732,170695305.72999693
826,0.0
843,0.0
923,552910626.4465025
947,552910626.4465025
972,0.0
997,521856.1279997175
2,2, 1, 2, 0,13, 0.00,60.00,Tuesday
8,-0.9843616670581066
10,587228958.4603787
922,550315956.9155234
2,2, 1, 2, 0,13, 0.00,60.00,Tuesday
11,587228958.4603787
47,45580250.94169688
139,177643641.4909061
279,192797314.43120534
306,0.8029085518507103
330,0.8029085518507103
732,170695305.72999693
826,0.0
843,0.0
923,550315956.9155234
947,550315956.9155234
972,0.0
997,512445.86657341537
2,2, 1, 2, 0,14, 0.00,60.00,Tuesday
8,-0.817959937909318
10,578610675.265658
922,590465607.3136695
2,2, 1, 2, 0,14, 0.00,60.00,Tuesday
11,578610675.265658
47,46982479.02752268
139,169238984.1314674
279,191137181.96287508
306,0.7120132440940261
330,0.7120132440940261
732,170695305.72999693
826,0.0
843,0.0
923,590465607.3136695
947,590465607.3136695
972,0.0
997,556724.4137959504
2,2, 1, 2, 0,15, 0.00,60.00,Tuesday
8,-0.5975033634303576
10,384947366.3192197
922,516108744.93082246
2,2, 1, 2, 0,15, 0.00,60.00,Tuesday
11,384947366.3192197
47,46982479.02752268
139,166794441.56893606
279,0.0
306,0.6211179363373419
330,0.6211179363373419
732,170695305.72999693
826,0.0
843,0.0
923,516108744.93082246
947,516108744.93082246
972,0.0
997,475139.9927641419
2,2, 1, 2, 0,16, 0.00,60.00,Tuesday
8,-0.5971565962370674
10,595076009.3272878
922,529515195.5309348
2,2, 1, 2, 0,16, 0.00,60.00,Tuesday
11,595076009.3272878
47,55955362.80982594
139,176721870.1575675
279,191218018.89053739
306,0.7120132440940261
330,0.7120132440940261
732,170695305.72999693
826,0.0
843,0.0
923,529515195.5309348
947,529515195.5309348
972,0.0
997,485451.7393601066
2,2, 1, 2, 0,17, 0.00,60.00,Tuesday
8,-0.5971565962370674
10,651608622.8920443
922,547696464.1669172
2,2, 1, 2, 0,17, 0.00,60.00,Tuesday
11,651608622.8920443
47,76892090.22553696
139,210136256.10456313
279,193379332.7607678
306,0.8332069877696051
330,0.8332069877696051
732,170695305.72999693
826,0.0
843,0.0
923,547696464.1669172
947,547696464.1669172
972,0.0
997,505638.0711795339
2,2, 1, 2, 0,18, 0.00,60.00,Tuesday
8,-1.1795657539051999
10,781647597.5877714
922,526624705.20040687
2,2, 1, 2, 0,18, 0.00,60.00,Tuesday
11,781647597.5877714
47,84741814.51495026
139,259492932.1082073
279,198493560.98238225
306,1.1058929110396576
330,1.1058929110396576
732,170695305.72999693
826,0.0
843,67739200.33518712
923,526624705.20040687
947,526624705.20040687
972,0.0
997,484783.917047364
2,2, 1, 2, 0,19, 0.00,60.00,Tuesday
8,-1.020404023167408
10,996392267.4936785
922,457891245.5825772
2,2, 1, 2, 0,19, 0.00,60.00,Tuesday
11,996392267.4936785
47,105678542.45928499
139,247060984.00458647
279,404806210.67823979
306,1.3028327445124733
330,1.3028327445124733
732,170695305.72999693
826,0.0
843,67739200.33518712
923,457891245.5825772
947,457891245.5825772
972,0.0
997,412024.28638318387
2,2, 1, 2, 0,20, 0.00,60.00,Tuesday
8,-1.6649382965486524
10,790636951.3969424
922,576512094.6309849
2,2, 1, 2, 0,20, 0.00,60.00,Tuesday
11,790636951.3969424
47,120633348.05829214
139,229949186.066867
279,201079417.972032
306,1.2422358726746839
330,1.2422358726746839
732,170695305.72999693
826,0.0
843,67739200.33518712
923,576512094.6309849
947,576512094.6309849
972,0.0
997,540493.2345671194
2,2, 1, 2, 0,21, 0.00,60.00,Tuesday
8,-2.0970481657497048
10,783578453.7825004
922,465831416.8399819
2,2, 1, 2, 0,21, 0.00,60.00,Tuesday
11,783578453.7825004
47,120633348.05829214
139,225030226.7049352
279,199057111.68251587
306,1.1361913469585523
330,1.1361913469585523
732,170695305.72999693
826,0.0
843,67739200.33518712
923,465831416.8399819
947,465831416.8399819
972,0.0
997,423261.27157307518
2,2, 1, 2, 0,22, 0.00,60.00,Tuesday
8,-2.448595400822192
10,735211820.5937499
922,627700056.9312049
2,2, 1, 2, 0,22, 0.00,60.00,Tuesday
11,735211820.5937499
47,90723736.86027786
139,210392845.56661619
279,195060683.23030506
306,0.9241022955262891
330,0.9241022955262891
732,170695305.72999693
826,0.0
843,67739200.33518712
923,627700056.9312049
947,627700056.9312049
972,0.0
997,600048.8713668234
2,2, 1, 2, 0,23, 0.00,60.00,Tuesday
8,-3.0766921149082706
10,668876231.872934
922,645073415.9420141
2,2, 1, 2, 0,23, 0.00,60.00,Tuesday
11,668876231.872934
47,60814125.66226358
139,176169249.69117729
279,192829314.3689631
306,0.8029085518507103
330,0.8029085518507103
732,170695305.72999693
826,0.0
843,67739200.33518712
923,645073415.9420141
947,645073415.9420141
972,0.0
997,629036.0853459457
2,2, 1, 2, 0,24, 0.00,60.00,Tuesday
8,-3.0766921149082706
10,541328805.2663792
922,691647118.8331268
2,2, 1, 2, 0,24, 0.00,60.00,Tuesday
11,541328805.2663792
47,39877398.24655257
139,144390196.37826974
279,117940071.86853124
306,0.4393273208239735
330,0.4393273208239735
732,170695305.72999693
826,0.0
843,67739200.33518712
923,691647118.8331268
947,691647118.8331268
972,0.0
997,686632.7078416924
3,2, 1, 2, 0,Tuesday
488,21.671008095543657,21.080983606159575,14,60,22.43304539549131, 1,60
527,21.215223131508876,20.819224648161634,14,60,21.895797308003649, 1,60
566,19.805017242571635,18.878712385184668, 6,60,20.60772199346551,19,60
2,3, 1, 3, 0, 1, 0.00,60.00,Wednesday
8,-3.8400849580777196
10,442761333.670401
922,897335014.4579965
2,3, 1, 3, 0, 1, 0.00,60.00,Wednesday
11,442761333.670401
47,30904514.992873029
139,112611143.0653622
279,66503773.33422474
306,0.1211937436755789
330,0.1211937436755789
732,170695305.72999693
826,0.0
843,61075504.06359731
923,897335014.4579965
947,897335014.4579965
972,0.0
997,971092.4843467719
2,3, 1, 3, 0, 2, 0.00,60.00,Wednesday
8,-3.839424890680984
10,366190792.15728887
922,673080943.8806747
2,3, 1, 3, 0, 2, 0.00,60.00,Wednesday
11,366190792.15728887
47,30904514.992873029
139,102832972.81523679
279,0.0
306,0.06059687183778945
330,0.06059687183778945
732,170695305.72999693
826,0.0
843,61075504.06359731
923,673080943.8806747
947,673080943.8806747
972,0.0
997,682494.5555847359
2,3, 1, 3, 0, 3, 0.00,60.00,Wednesday
8,-4.1712791770681749
10,361282051.05577698
922,672896214.0655823
2,3, 1, 3, 0, 3, 0.00,60.00,Wednesday
11,361282051.05577698
47,30904514.992873029
139,97943887.69017409
279,0.0
306,0.015149217959447363
330,0.015149217959447363
732,170695305.72999693
826,0.0
843,61075504.06359731
923,672896214.0655823
947,672896214.0655823
972,0.0
997,662838.5791355452
2,3, 1, 3, 0, 4, 0.00,60.00,Wednesday
8,-4.310274787688259
10,359162622.0201425
922,915575327.9930688
2,3, 1, 3, 0, 4, 0.00,60.00,Wednesday
11,359162622.0201425
47,30904514.992873029
139,95499345.12764275
279,0.0
306,0.015149217959447363
330,0.015149217959447363
732,170695305.72999693
826,0.0
843,61075504.06359731
923,915575327.9930688
947,915575327.9930688
972,0.0
997,987952.1060324449
2,3, 1, 3, 0, 5, 0.00,60.00,Wednesday
8,-5.011897641093955
10,371253736.6495538
922,981313579.6144712
2,3, 1, 3, 0, 5, 0.00,60.00,Wednesday
11,371253736.6495538
47,42868359.154904518
139,95499345.12764275
279,0.0
306,0.06059687183778945
330,0.06059687183778945
732,170695305.72999693
826,0.0
843,61075504.06359731
923,981313579.6144712
947,981313579.6144712
972,0.0
997,1115222.573412301
2,3, 1, 3, 0, 6, 0.00,60.00,Wednesday
8,-5.348283325588144
10,404338849.65847727
922,927338779.6231579
2,3, 1, 3, 0, 6, 0.00,60.00,Wednesday
11,404338849.65847727
47,63805087.099239248
139,107722057.9402995
279,0.0
306,0.4090288849050788
330,0.4090288849050788
732,170695305.72999693
826,0.0
843,61075504.06359731
923,927338779.6231579
947,927338779.6231579
972,0.0
997,1040894.8253442883
2,3, 1, 3, 0, 7, 0.00,60.00,Wednesday
8,-5.654568022820762
10,856199491.7378101
922,962732344.8460091
2,3, 1, 3, 0, 7, 0.00,60.00,Wednesday
11,856199491.7378101
47,66796048.00759117
139,140037589.513127
279,409838287.1624213
306,1.4240264881880523
330,1.4240264881880523
732,170695305.72999693
826,0.0
843,67739200.33518712
923,962732344.8460091
947,962732344.8460091
972,0.0
997,1093060.9894865603
2,3, 1, 3, 0, 8, 0.00,60.00,Wednesday
8,-5.4788702207489179
10,685712782.7011837
922,885852497.8811004
2,3, 1, 3, 0, 8, 0.00,60.00,Wednesday
11,685712782.7011837
47,63805087.099239248
139,176314760.12586237
279,206178990.65301947
306,1.5149217959447364
330,1.5149217959447364
732,170695305.72999693
826,0.0
843,67739200.33518712
923,885852497.8811004
947,885852497.8811004
972,0.0
997,979438.7578784843
2,3, 1, 3, 0, 9, 0.00,60.00,Wednesday
8,-5.78833505928885
10,809910062.2066727
922,743263223.5836468
2,3, 1, 3, 0, 9, 0.00,60.00,Wednesday
11,809910062.2066727
47,52964401.3728503
139,174381371.26805554
279,411101020.91265228
306,1.454324924106947
330,1.454324924106947
732,170695305.72999693
826,0.0
843,0.0
923,743263223.5836468
947,743263223.5836468
972,0.0
997,767962.9231174503
2,3, 1, 3, 0,10, 0.00,60.00,Wednesday
8,-6.360779300234708
10,592285815.6661836
922,1027373207.9778596
2,3, 1, 3, 0,10, 0.00,60.00,Wednesday
11,592285815.6661836
47,46982479.02752268
139,171683526.69399876
279,201760853.6828677
306,1.2725343085935786
330,1.2725343085935786
732,170695305.72999693
826,0.0
843,0.0
923,1027373207.9778596
947,1027373207.9778596
972,0.0
997,1163650.5317975297
2,3, 1, 3, 0,11, 0.00,60.00,Wednesday
8,-6.209417884049362
10,594767817.9654362
922,955908313.8882307
2,3, 1, 3, 0,11, 0.00,60.00,Wednesday
11,594767817.9654362
47,46982479.02752268
139,176572611.81906144
279,199431281.05395744
306,1.1513405649179996
330,1.1513405649179996
732,170695305.72999693
826,0.0
843,0.0
923,955908313.8882307
947,955908313.8882307
972,0.0
997,1086140.3348977112
2,3, 1, 3, 0,12, 0.00,60.00,Wednesday
8,-6.0824279633693039
10,594327693.5118486
922,869853246.8085005
2,3, 1, 3, 0,12, 0.00,60.00,Wednesday
11,594327693.5118486
47,46982479.02752268
139,180562134.55370135
279,195134834.73444797
306,0.9241022955262891
330,0.9241022955262891
732,170695305.72999693
826,0.0
843,0.0
923,869853246.8085005
947,869853246.8085005
972,0.0
997,952939.466179767
2,3, 1, 3, 0,13, 0.00,60.00,Wednesday
8,-6.550193446183367
10,587843624.3522631
922,923543281.2788967
2,3, 1, 3, 0,13, 0.00,60.00,Wednesday
11,587843624.3522631
47,45580250.94169688
139,177643641.4909061
279,192899703.6340816
306,0.8029085518507103
330,0.8029085518507103
732,170695305.72999693
826,0.0
843,0.0
923,923543281.2788967
947,923543281.2788967
972,0.0
997,1024722.5555815682
2,3, 1, 3, 0,14, 0.00,60.00,Wednesday
8,-6.889542842120662
10,579222945.2895594
922,950227745.4616857
2,3, 1, 3, 0,14, 0.00,60.00,Wednesday
11,579222945.2895594
47,46982479.02752268
139,169238984.1314674
279,191237045.63775493
306,0.7120132440940261
330,0.7120132440940261
732,170695305.72999693
826,0.0
843,0.0
923,950227745.4616857
947,950227745.4616857
972,0.0
997,1069130.7628174872
2,3, 1, 3, 0,15, 0.00,60.00,Wednesday
8,-7.3508378156906419
10,575042960.1669282
922,893205024.8423722
2,3, 1, 3, 0,15, 0.00,60.00,Wednesday
11,575042960.1669282
47,46982479.02752268
139,166794441.56893606
279,189587173.07262833
306,0.6211179363373419
330,0.6211179363373419
732,170695305.72999693
826,0.0
843,0.0
923,893205024.8423722
947,893205024.8423722
972,0.0
997,983560.7678441147
2,3, 1, 3, 0,16, 0.00,60.00,Wednesday
8,-7.469274250048447
10,595503072.0546509
922,894706601.9780862
2,3, 1, 3, 0,16, 0.00,60.00,Wednesday
11,595503072.0546509
47,55955362.80982594
139,176721870.1575675
279,191154120.67856566
306,0.7120132440940261
330,0.7120132440940261
732,170695305.72999693
826,0.0
843,0.0
923,894706601.9780862
947,894706601.9780862
972,0.0
997,976412.6786947902
2,3, 1, 3, 0,17, 0.00,60.00,Wednesday
8,-7.904415557688695
10,637710538.2220193
922,897258298.9886355
2,3, 1, 3, 0,17, 0.00,60.00,Wednesday
11,637710538.2220193
47,76892090.22553696
139,210136256.10456313
279,179008536.2485626
306,0.8332069877696051
330,0.8332069877696051
732,170695305.72999693
826,0.0
843,0.0
923,897258298.9886355
947,897258298.9886355
972,0.0
997,978349.9133597424
2,3, 1, 3, 0,18, 0.00,60.00,Wednesday
8,-8.367190283489729
10,796777279.6752837
922,882511968.2554416
2,3, 1, 3, 0,18, 0.00,60.00,Wednesday
11,796777279.6752837
47,84741814.51495026
139,259492932.1082073
279,213147729.7385465
306,1.1058929110396576
330,1.1058929110396576
732,170695305.72999693
826,0.0
843,67739200.33518712
923,882511968.2554416
947,882511968.2554416
972,0.0
997,960297.2483954503
2,3, 1, 3, 0,19, 0.00,60.00,Wednesday
8,-8.255558329956174
10,794464930.2960917
922,863416037.7280058
2,3, 1, 3, 0,19, 0.00,60.00,Wednesday
11,794464930.2960917
47,105678542.45928499
139,247060984.00458647
279,202353701.20576868
306,1.3028327445124733
330,1.3028327445124733
732,170695305.72999693
826,0.0
843,67739200.33518712
923,863416037.7280058
947,863416037.7280058
972,0.0
997,937196.5612673953
2,3, 1, 3, 0,20, 0.00,60.00,Wednesday
8,-8.816054925650735
10,790980209.7201607
922,731581313.0295354
2,3, 1, 3, 0,20, 0.00,60.00,Wednesday
11,790980209.7201607
47,120633348.05829214
139,229949186.066867
279,201211829.44768257
306,1.2422358726746839
330,1.2422358726746839
732,170695305.72999693
826,0.0
843,67739200.33518712
923,731581313.0295354
947,731581313.0295354
972,0.0
997,751340.0821349233
2,3, 1, 3, 0,21, 0.00,60.00,Wednesday
8,-8.816054925650735
10,983228386.0203393
922,751324433.0076602
2,3, 1, 3, 0,21, 0.00,60.00,Wednesday
11,983228386.0203393
47,120633348.05829214
139,225030226.7049352
279,398368213.088248
306,1.1361913469585523
330,1.1361913469585523
732,170695305.72999693
826,0.0
843,67739200.33518712
923,751324433.0076602
947,751324433.0076602
972,0.0
997,762092.1036797167
2,3, 1, 3, 0,22, 0.00,60.00,Wednesday
8,-10.14379348977496
10,735317173.9020976
922,752974190.6831696
2,3, 1, 3, 0,22, 0.00,60.00,Wednesday
11,735317173.9020976
47,90723736.86027786
139,210392845.56661619
279,195004946.1123515
306,0.9241022955262891
330,0.9241022955262891
732,170695305.72999693
826,0.0
843,67739200.33518712
923,752974190.6831696
947,752974190.6831696
972,0.0
997,761139.2976679521
2,3, 1, 3, 0,23, 0.00,60.00,Wednesday
8,-9.490273946420136
10,669064482.415641
922,839392115.3319646
2,3, 1, 3, 0,23, 0.00,60.00,Wednesday
11,669064482.415641
47,60814125.66226358
139,176169249.69117729
279,192771133.27004693
306,0.8029085518507103
330,0.8029085518507103
732,170695305.72999693
826,0.0
843,67739200.33518712
923,839392115.3319646
947,839392115.3319646
972,0.0
997,875467.7269690692
2,3, 1, 3, 0,24, 0.00,60.00,Wednesday
8,-9.592938811400991